/*--------------------------------*- C++ -*----------------------------------*\
| =========                 |                                                 |
| \\      /  F ield         | OpenFOAM: The Open Source CFD Toolbox           |
|  \\    /   O peration     | Version:  2406                                  |
|   \\  /    A nd           | Website:  www.openfoam.com                      |
|    \\/     M anipulation  |                                                 |
\*---------------------------------------------------------------------------*/
FoamFile
{
    version     2.0;
    format      ascii;
    arch        "LSB;label=32;scalar=64";
    class       volScalarField;
    location    "60";
    object      p;
}
// * * * * * * * * * * * * * * * * * * * * * * * * * * * * * * * * * * * * * //

dimensions      [0 2 -2 0 0 0 0];

internalField   nonuniform List<scalar> 
10000
(
0
1.6548e-07
1.39079e-06
3.83957e-06
6.71542e-06
7.00051e-06
6.7521e-06
6.74899e-06
3.27566e-05
5.89653e-05
-0.000718831
-0.000718959
-0.000718351
-0.000716859
-0.000715067
-0.000715338
-0.00071576
-0.000715759
-0.000689639
-0.000663524
-0.00160482
-0.00160507
-0.00160488
-0.00160413
-0.0016032
-0.00160375
-0.00160413
-0.00160413
-0.00157871
-0.00155287
-0.00269658
-0.00269679
-0.0026968
-0.00269649
-0.0026961
-0.00269656
-0.00269681
-0.00269681
-0.00267288
-0.00264757
-0.00404128
-0.00404141
-0.00404145
-0.00404136
-0.00404123
-0.00404145
-0.00404159
-0.00404159
-0.00401948
-0.00399501
-0.00569707
-0.00569712
-0.00569715
-0.00569713
-0.0056971
-0.00569715
-0.00569722
-0.00569722
-0.00567688
-0.00565351
-0.00773567
-0.00773568
-0.00773569
-0.0077357
-0.00773569
-0.00773567
-0.0077357
-0.0077357
-0.00771697
-0.0076949
-0.0102455
-0.0102455
-0.0102455
-0.0102455
-0.0102455
-0.0102455
-0.0102455
-0.0102455
-0.0102283
-0.0102076
-0.0133356
-0.0133356
-0.0133356
-0.0133356
-0.0133356
-0.0133356
-0.0133356
-0.0133356
-0.0133197
-0.0133006
-0.0171401
-0.0171401
-0.0171401
-0.0171401
-0.0171401
-0.0171401
-0.0171401
-0.0171401
-0.0171256
-0.0171079
8.4137e-05
0.000106887
0.00012747
0.000146371
0.0001639
0.000180274
0.00019565
0.000210149
0.000223865
0.000236871
0.000249232
0.000260996
0.000272208
0.000282906
0.000293123
0.00030289
0.000312236
0.000321186
0.000329767
0.000338003
0.000345916
0.000353529
0.00036086
0.000367928
0.000374748
0.000381335
0.000387698
0.000393846
0.000399785
0.000405518
0.000411046
0.000416369
0.000421487
0.000426397
0.0004311
0.000435595
0.000439883
0.000443968
0.000447854
0.000451549
0.000455064
0.000458409
0.000461598
0.000464645
0.000467566
0.000470375
0.000473086
0.000475713
0.000478268
0.000480759
0.000483192
0.000485573
0.000487901
0.000490177
0.000492395
0.000494549
0.000496634
0.00049864
0.000500559
0.000502383
0.000504103
0.000505714
0.000507211
0.000508592
0.000509857
0.000511007
0.000512048
0.000512986
0.000513828
0.000514585
0.000515264
0.000515878
0.000516434
0.000516941
0.000517408
0.000517837
0.000518234
0.000518598
0.000518927
0.000519218
-0.000638395
-0.000615665
-0.000595093
-0.0005762
-0.000558676
-0.000542306
-0.000526932
-0.000512436
-0.000498722
-0.000485717
-0.000473358
-0.000461595
-0.000450384
-0.000439687
-0.00042947
-0.000419704
-0.000410359
-0.000401409
-0.000392828
-0.000384593
-0.00037668
-0.000369068
-0.000361737
-0.00035467
-0.000347849
-0.000341263
-0.0003349
-0.000328752
-0.000322814
-0.000317082
-0.000311554
-0.000306231
-0.000301113
-0.000296203
-0.000291501
-0.000287006
-0.000282718
-0.000278634
-0.000274747
-0.000271052
-0.000267538
-0.000264193
-0.000261004
-0.000257956
-0.000255036
-0.000252227
-0.000249515
-0.000246888
-0.000244334
-0.000241843
-0.000239409
-0.000237029
-0.0002347
-0.000232425
-0.000230207
-0.000228052
-0.000225968
-0.000223962
-0.000222043
-0.00022022
-0.0002185
-0.000216889
-0.000215392
-0.000214011
-0.000212747
-0.000211596
-0.000210555
-0.000209617
-0.000208775
-0.000208019
-0.000207339
-0.000206725
-0.000206169
-0.000205661
-0.000205195
-0.000204765
-0.000204368
-0.000204005
-0.000203675
-0.000203384
-0.00152786
-0.00150518
-0.00148464
-0.00146577
-0.00144826
-0.0014319
-0.00141653
-0.00140204
-0.00138833
-0.00137533
-0.00136298
-0.00135122
-0.00134001
-0.00132932
-0.0013191
-0.00130934
-0.00129999
-0.00129104
-0.00128247
-0.00127423
-0.00126632
-0.00125871
-0.00125138
-0.00124431
-0.00123749
-0.00123091
-0.00122454
-0.0012184
-0.00121246
-0.00120673
-0.0012012
-0.00119588
-0.00119076
-0.00118585
-0.00118115
-0.00117666
-0.00117237
-0.00116829
-0.0011644
-0.00116071
-0.00115719
-0.00115385
-0.00115066
-0.00114761
-0.00114469
-0.00114188
-0.00113917
-0.00113654
-0.00113398
-0.00113149
-0.00112906
-0.00112668
-0.00112435
-0.00112208
-0.00111986
-0.00111771
-0.00111562
-0.00111362
-0.0011117
-0.00110988
-0.00110816
-0.00110655
-0.00110505
-0.00110367
-0.00110241
-0.00110126
-0.00110021
-0.00109928
-0.00109843
-0.00109768
-0.001097
-0.00109638
-0.00109582
-0.00109532
-0.00109485
-0.00109442
-0.00109402
-0.00109366
-0.00109333
-0.00109304
-0.00262279
-0.00260022
-0.00257975
-0.00256092
-0.00254344
-0.0025271
-0.00251175
-0.00249727
-0.00248357
-0.00247058
-0.00245824
-0.00244648
-0.00243528
-0.00242459
-0.00241438
-0.00240462
-0.00239528
-0.00238633
-0.00237775
-0.00236952
-0.00236161
-0.002354
-0.00234667
-0.00233961
-0.00233279
-0.00232621
-0.00231985
-0.0023137
-0.00230777
-0.00230204
-0.00229652
-0.0022912
-0.00228608
-0.00228118
-0.00227648
-0.00227198
-0.0022677
-0.00226361
-0.00225973
-0.00225603
-0.00225252
-0.00224917
-0.00224598
-0.00224293
-0.00224001
-0.0022372
-0.00223449
-0.00223186
-0.0022293
-0.00222681
-0.00222438
-0.002222
-0.00221967
-0.0022174
-0.00221518
-0.00221303
-0.00221095
-0.00220895
-0.00220703
-0.00220521
-0.00220349
-0.00220188
-0.00220039
-0.00219901
-0.00219774
-0.00219659
-0.00219555
-0.00219461
-0.00219377
-0.00219301
-0.00219233
-0.00219171
-0.00219115
-0.00219064
-0.00219017
-0.00218974
-0.00218935
-0.00218898
-0.00218865
-0.00218836
-0.00397061
-0.00394825
-0.00392789
-0.00390913
-0.0038917
-0.00387541
-0.00386009
-0.00384564
-0.00383196
-0.00381898
-0.00380665
-0.00379491
-0.00378372
-0.00377303
-0.00376283
-0.00375308
-0.00374374
-0.0037348
-0.00372623
-0.003718
-0.00371009
-0.00370249
-0.00369516
-0.0036881
-0.00368129
-0.00367471
-0.00366835
-0.00366221
-0.00365628
-0.00365056
-0.00364504
-0.00363972
-0.00363461
-0.00362971
-0.00362501
-0.00362052
-0.00361624
-0.00361216
-0.00360827
-0.00360458
-0.00360106
-0.00359771
-0.00359452
-0.00359147
-0.00358855
-0.00358573
-0.00358302
-0.00358039
-0.00357783
-0.00357534
-0.00357291
-0.00357053
-0.00356821
-0.00356593
-0.00356372
-0.00356157
-0.0035595
-0.0035575
-0.00355558
-0.00355377
-0.00355205
-0.00355044
-0.00354895
-0.00354757
-0.00354631
-0.00354515
-0.00354411
-0.00354317
-0.00354232
-0.00354156
-0.00354088
-0.00354026
-0.0035397
-0.00353919
-0.00353872
-0.00353828
-0.00353788
-0.00353752
-0.00353719
-0.0035369
-0.0056297
-0.00560766
-0.00558749
-0.00556887
-0.00555153
-0.0055353
-0.00552003
-0.00550562
-0.00549198
-0.00547903
-0.00546672
-0.005455
-0.00544383
-0.00543316
-0.00542297
-0.00541323
-0.00540391
-0.00539497
-0.00538641
-0.00537819
-0.00537029
-0.00536269
-0.00535537
-0.00534831
-0.0053415
-0.00533493
-0.00532858
-0.00532245
-0.00531652
-0.00531081
-0.0053053
-0.00529999
-0.00529489
-0.00528999
-0.0052853
-0.00528081
-0.00527653
-0.00527245
-0.00526857
-0.00526487
-0.00526135
-0.005258
-0.00525481
-0.00525176
-0.00524883
-0.00524601
-0.0052433
-0.00524066
-0.00523811
-0.00523562
-0.00523318
-0.00523081
-0.00522849
-0.00522622
-0.00522401
-0.00522187
-0.0052198
-0.0052178
-0.0052159
-0.00521408
-0.00521237
-0.00521077
-0.00520928
-0.0052079
-0.00520663
-0.00520548
-0.00520444
-0.00520349
-0.00520264
-0.00520188
-0.00520119
-0.00520057
-0.0052
-0.00519948
-0.00519901
-0.00519858
-0.00519817
-0.00519781
-0.00519748
-0.00519719
-0.0076719
-0.00765034
-0.00763048
-0.00761206
-0.00759487
-0.00757875
-0.00756357
-0.00754923
-0.00753564
-0.00752274
-0.00751047
-0.00749878
-0.00748764
-0.007477
-0.00746683
-0.00745711
-0.0074478
-0.00743888
-0.00743033
-0.00742212
-0.00741423
-0.00740664
-0.00739933
-0.00739228
-0.00738549
-0.00737892
-0.00737259
-0.00736646
-0.00736055
-0.00735485
-0.00734935
-0.00734405
-0.00733896
-0.00733407
-0.00732939
-0.00732491
-0.00732064
-0.00731656
-0.00731268
-0.00730898
-0.00730546
-0.00730211
-0.00729891
-0.00729585
-0.00729292
-0.0072901
-0.00728738
-0.00728475
-0.00728219
-0.0072797
-0.00727727
-0.0072749
-0.00727258
-0.00727032
-0.00726812
-0.00726599
-0.00726392
-0.00726194
-0.00726004
-0.00725823
-0.00725653
-0.00725493
-0.00725344
-0.00725207
-0.0072508
-0.00724965
-0.0072486
-0.00724765
-0.0072468
-0.00724602
-0.00724533
-0.0072447
-0.00724413
-0.00724361
-0.00724313
-0.00724269
-0.00724229
-0.00724192
-0.00724159
-0.00724129
-0.0101857
-0.0101648
-0.0101454
-0.0101272
-0.0101103
-0.0100943
-0.0100793
-0.0100651
-0.0100516
-0.0100387
-0.0100265
-0.0100149
-0.0100038
-0.00999321
-0.00998307
-0.00997338
-0.0099641
-0.00995521
-0.00994667
-0.00993848
-0.00993061
-0.00992304
-0.00991575
-0.00990872
-0.00990194
-0.00989539
-0.00988907
-0.00988297
-0.00987708
-0.00987139
-0.00986591
-0.00986063
-0.00985555
-0.00985068
-0.00984601
-0.00984154
-0.00983727
-0.0098332
-0.00982932
-0.00982563
-0.00982211
-0.00981875
-0.00981555
-0.00981249
-0.00980955
-0.00980673
-0.009804
-0.00980137
-0.00979881
-0.00979632
-0.00979389
-0.00979152
-0.00978922
-0.00978696
-0.00978478
-0.00978265
-0.0097806
-0.00977863
-0.00977674
-0.00977495
-0.00977325
-0.00977166
-0.00977018
-0.0097688
-0.00976754
-0.00976638
-0.00976533
-0.00976438
-0.00976351
-0.00976273
-0.00976203
-0.00976139
-0.00976081
-0.00976028
-0.0097598
-0.00975935
-0.00975895
-0.00975857
-0.00975824
-0.00975795
-0.0132798
-0.0132598
-0.013241
-0.0132234
-0.0132068
-0.0131911
-0.0131763
-0.0131622
-0.0131488
-0.0131361
-0.013124
-0.0131125
-0.0131015
-0.0130909
-0.0130808
-0.0130712
-0.013062
-0.0130531
-0.0130446
-0.0130365
-0.0130286
-0.0130211
-0.0130138
-0.0130068
-0.013
-0.0129935
-0.0129872
-0.0129812
-0.0129753
-0.0129696
-0.0129642
-0.0129589
-0.0129539
-0.012949
-0.0129444
-0.0129399
-0.0129357
-0.0129316
-0.0129277
-0.012924
-0.0129205
-0.0129172
-0.0129139
-0.0129109
-0.0129079
-0.0129051
-0.0129024
-0.0128997
-0.0128972
-0.0128947
-0.0128923
-0.0128899
-0.0128876
-0.0128854
-0.0128832
-0.0128811
-0.0128791
-0.0128771
-0.0128752
-0.0128735
-0.0128718
-0.0128702
-0.0128687
-0.0128674
-0.0128661
-0.0128649
-0.0128639
-0.0128629
-0.012862
-0.0128612
-0.0128605
-0.0128599
-0.0128593
-0.0128588
-0.0128583
-0.0128578
-0.0128574
-0.012857
-0.0128567
-0.0128564
-0.0170885
-0.0170696
-0.0170517
-0.0170346
-0.0170185
-0.0170032
-0.0169887
-0.0169749
-0.0169617
-0.0169492
-0.0169372
-0.0169258
-0.0169149
-0.0169045
-0.0168945
-0.0168849
-0.0168758
-0.016867
-0.0168585
-0.0168504
-0.0168426
-0.0168351
-0.0168279
-0.0168209
-0.0168142
-0.0168078
-0.0168015
-0.0167955
-0.0167896
-0.016784
-0.0167786
-0.0167734
-0.0167684
-0.0167635
-0.0167589
-0.0167545
-0.0167503
-0.0167462
-0.0167423
-0.0167387
-0.0167351
-0.0167318
-0.0167286
-0.0167255
-0.0167226
-0.0167197
-0.016717
-0.0167144
-0.0167118
-0.0167093
-0.0167069
-0.0167046
-0.0167023
-0.0167001
-0.0166979
-0.0166958
-0.0166938
-0.0166919
-0.01669
-0.0166883
-0.0166866
-0.016685
-0.0166836
-0.0166822
-0.0166809
-0.0166798
-0.0166787
-0.0166777
-0.0166769
-0.0166761
-0.0166753
-0.0166747
-0.0166741
-0.0166735
-0.016673
-0.0166725
-0.0166721
-0.0166717
-0.0166714
-0.0166711
0.00051946
0.000519634
0.000519752
0.000519835
0.000519894
0.000519935
0.000519963
0.00051998
0.00051999
0.000519993
-0.000203142
-0.000202968
-0.00020285
-0.000202767
-0.000202708
-0.000202666
-0.000202639
-0.000202622
-0.000202613
-0.00020261
-0.0010928
-0.00109262
-0.0010925
-0.00109242
-0.00109236
-0.00109232
-0.00109229
-0.00109228
-0.00109227
-0.00109227
-0.00218812
-0.00218794
-0.00218783
-0.00218774
-0.00218769
-0.00218765
-0.00218762
-0.00218761
-0.0021876
-0.0021876
-0.00353666
-0.00353648
-0.00353636
-0.00353628
-0.00353623
-0.00353619
-0.00353617
-0.00353615
-0.00353615
-0.00353615
-0.00519694
-0.00519677
-0.00519665
-0.00519657
-0.00519652
-0.00519649
-0.00519647
-0.00519645
-0.00519645
-0.00519645
-0.00724105
-0.00724088
-0.00724076
-0.00724069
-0.00724063
-0.0072406
-0.00724058
-0.00724057
-0.00724057
-0.00724057
-0.00975771
-0.00975753
-0.00975742
-0.00975734
-0.0097573
-0.00975727
-0.00975725
-0.00975724
-0.00975723
-0.00975723
-0.0128561
-0.012856
-0.0128559
-0.0128558
-0.0128557
-0.0128557
-0.0128557
-0.0128557
-0.0128557
-0.0128557
-0.0166709
-0.0166707
-0.0166706
-0.0166705
-0.0166704
-0.0166704
-0.0166704
-0.0166704
-0.0166704
-0.0166704
-0.0214406
-0.0214406
-0.0214406
-0.0214406
-0.0214406
-0.0214406
-0.0214406
-0.0214406
-0.0214273
-0.021411
-0.025843
-0.025843
-0.025843
-0.025843
-0.025843
-0.025843
-0.025843
-0.025843
-0.0258306
-0.0258156
-0.0302453
-0.0302453
-0.0302453
-0.0302453
-0.0302453
-0.0302453
-0.0302453
-0.0302453
-0.0302338
-0.0302198
-0.0346477
-0.0346477
-0.0346477
-0.0346477
-0.0346477
-0.0346477
-0.0346477
-0.0346477
-0.0346369
-0.0346238
-0.03905
-0.03905
-0.03905
-0.03905
-0.03905
-0.03905
-0.03905
-0.03905
-0.0390399
-0.0390276
-0.0434524
-0.0434524
-0.0434524
-0.0434524
-0.0434524
-0.0434524
-0.0434524
-0.0434524
-0.0434429
-0.0434312
-0.0478547
-0.0478547
-0.0478547
-0.0478547
-0.0478547
-0.0478547
-0.0478547
-0.0478547
-0.0478458
-0.0478348
-0.0522571
-0.0522571
-0.0522571
-0.0522571
-0.0522571
-0.0522571
-0.0522571
-0.0522571
-0.0522486
-0.0522382
-0.0566594
-0.0566594
-0.0566594
-0.0566594
-0.0566594
-0.0566594
-0.0566594
-0.0566594
-0.0566514
-0.0566416
-0.0610618
-0.0610618
-0.0610618
-0.0610618
-0.0610618
-0.0610618
-0.0610618
-0.0610618
-0.0610542
-0.0610449
-0.0654641
-0.0654641
-0.0654641
-0.0654641
-0.0654641
-0.0654641
-0.0654641
-0.0654641
-0.065457
-0.0654482
-0.0698665
-0.0698665
-0.0698665
-0.0698665
-0.0698665
-0.0698665
-0.0698665
-0.0698665
-0.0698597
-0.0698514
-0.0742688
-0.0742688
-0.0742688
-0.0742688
-0.0742688
-0.0742688
-0.0742688
-0.0742688
-0.0742624
-0.0742545
-0.0786712
-0.0786712
-0.0786712
-0.0786712
-0.0786712
-0.0786712
-0.0786712
-0.0786712
-0.0786651
-0.0786576
-0.0830736
-0.0830736
-0.0830736
-0.0830736
-0.0830736
-0.0830736
-0.0830736
-0.0830736
-0.0830678
-0.0830607
-0.0874759
-0.0874759
-0.0874759
-0.0874759
-0.0874759
-0.0874759
-0.0874759
-0.0874759
-0.0874704
-0.0874637
-0.0918783
-0.0918783
-0.0918783
-0.0918783
-0.0918783
-0.0918783
-0.0918783
-0.0918783
-0.0918731
-0.0918668
-0.0962806
-0.0962806
-0.0962806
-0.0962806
-0.0962806
-0.0962806
-0.0962806
-0.0962806
-0.0962757
-0.0962697
-0.100683
-0.100683
-0.100683
-0.100683
-0.100683
-0.100683
-0.100683
-0.100683
-0.100678
-0.100673
-0.105085
-0.105085
-0.105085
-0.105085
-0.105085
-0.105085
-0.105085
-0.105085
-0.105081
-0.105076
-0.109488
-0.109488
-0.109488
-0.109488
-0.109488
-0.109488
-0.109488
-0.109488
-0.109484
-0.109479
-0.11389
-0.11389
-0.11389
-0.11389
-0.11389
-0.11389
-0.11389
-0.11389
-0.113886
-0.113882
-0.118292
-0.118292
-0.118292
-0.118292
-0.118292
-0.118292
-0.118292
-0.118292
-0.118289
-0.118284
-0.122695
-0.122695
-0.122695
-0.122695
-0.122695
-0.122695
-0.122695
-0.122695
-0.122691
-0.122687
-0.127097
-0.127097
-0.127097
-0.127097
-0.127097
-0.127097
-0.127097
-0.127097
-0.127094
-0.12709
-0.131499
-0.131499
-0.131499
-0.131499
-0.131499
-0.131499
-0.131499
-0.131499
-0.131497
-0.131493
-0.135902
-0.135902
-0.135902
-0.135902
-0.135902
-0.135902
-0.135902
-0.135902
-0.135899
-0.135896
-0.140304
-0.140304
-0.140304
-0.140304
-0.140304
-0.140304
-0.140304
-0.140304
-0.140302
-0.140299
-0.144707
-0.144707
-0.144707
-0.144707
-0.144707
-0.144707
-0.144707
-0.144707
-0.144704
-0.144702
-0.149109
-0.149109
-0.149109
-0.149109
-0.149109
-0.149109
-0.149109
-0.149109
-0.149107
-0.149104
-0.153511
-0.153511
-0.153511
-0.153511
-0.153511
-0.153511
-0.153511
-0.153511
-0.153509
-0.153507
-0.157914
-0.157914
-0.157914
-0.157914
-0.157914
-0.157914
-0.157914
-0.157914
-0.157912
-0.15791
-0.162316
-0.162316
-0.162316
-0.162316
-0.162316
-0.162316
-0.162316
-0.162316
-0.162315
-0.162313
-0.166718
-0.166718
-0.166718
-0.166718
-0.166718
-0.166718
-0.166718
-0.166718
-0.166717
-0.166716
-0.171121
-0.171121
-0.171121
-0.171121
-0.171121
-0.171121
-0.171121
-0.171121
-0.17112
-0.171118
-0.175523
-0.175523
-0.175523
-0.175523
-0.175523
-0.175523
-0.175523
-0.175523
-0.175522
-0.175521
-0.179925
-0.179925
-0.179925
-0.179925
-0.179925
-0.179925
-0.179925
-0.179925
-0.179925
-0.179924
-0.184328
-0.184328
-0.184328
-0.184328
-0.184328
-0.184328
-0.184328
-0.184328
-0.184327
-0.184327
-0.18873
-0.18873
-0.18873
-0.18873
-0.18873
-0.18873
-0.18873
-0.18873
-0.18873
-0.188729
-0.193132
-0.193132
-0.193132
-0.193132
-0.193132
-0.193132
-0.193132
-0.193132
-0.193132
-0.193132
-0.197535
-0.197535
-0.197535
-0.197535
-0.197535
-0.197535
-0.197535
-0.197535
-0.197535
-0.197535
-0.201937
-0.201937
-0.201937
-0.201937
-0.201937
-0.201937
-0.201937
-0.201937
-0.201937
-0.201938
-0.206339
-0.206339
-0.206339
-0.206339
-0.206339
-0.206339
-0.206339
-0.206339
-0.20634
-0.206341
-0.210742
-0.210742
-0.210742
-0.210742
-0.210742
-0.210742
-0.210742
-0.210742
-0.210742
-0.210743
-0.215144
-0.215144
-0.215144
-0.215144
-0.215144
-0.215144
-0.215144
-0.215144
-0.215145
-0.215146
-0.219547
-0.219547
-0.219547
-0.219547
-0.219547
-0.219547
-0.219547
-0.219547
-0.219548
-0.219549
-0.223949
-0.223949
-0.223949
-0.223949
-0.223949
-0.223949
-0.223949
-0.223949
-0.22395
-0.223952
-0.228351
-0.228351
-0.228351
-0.228351
-0.228351
-0.228351
-0.228351
-0.228351
-0.228353
-0.228354
-0.232754
-0.232754
-0.232754
-0.232754
-0.232754
-0.232754
-0.232754
-0.232754
-0.232755
-0.232757
-0.237156
-0.237156
-0.237156
-0.237156
-0.237156
-0.237156
-0.237156
-0.237156
-0.237158
-0.23716
-0.241558
-0.241558
-0.241558
-0.241558
-0.241558
-0.241558
-0.241558
-0.241558
-0.24156
-0.241563
-0.245961
-0.245961
-0.245961
-0.245961
-0.245961
-0.245961
-0.245961
-0.245961
-0.245963
-0.245966
-0.250363
-0.250363
-0.250363
-0.250363
-0.250363
-0.250363
-0.250363
-0.250363
-0.250365
-0.250368
-0.254765
-0.254765
-0.254765
-0.254765
-0.254765
-0.254765
-0.254765
-0.254765
-0.254768
-0.254771
-0.259168
-0.259168
-0.259168
-0.259168
-0.259168
-0.259168
-0.259168
-0.259168
-0.259171
-0.259174
-0.26357
-0.26357
-0.26357
-0.26357
-0.26357
-0.26357
-0.26357
-0.26357
-0.263573
-0.263577
-0.267972
-0.267972
-0.267972
-0.267972
-0.267972
-0.267972
-0.267972
-0.267972
-0.267976
-0.26798
-0.272375
-0.272375
-0.272375
-0.272375
-0.272375
-0.272375
-0.272375
-0.272375
-0.272378
-0.272383
-0.276777
-0.276777
-0.276777
-0.276777
-0.276777
-0.276777
-0.276777
-0.276777
-0.276781
-0.276785
-0.281179
-0.281179
-0.281179
-0.281179
-0.281179
-0.281179
-0.281179
-0.281179
-0.281183
-0.281188
-0.285582
-0.285582
-0.285582
-0.285582
-0.285582
-0.285582
-0.285582
-0.285582
-0.285586
-0.285591
-0.289984
-0.289984
-0.289984
-0.289984
-0.289984
-0.289984
-0.289984
-0.289984
-0.289989
-0.289994
-0.294387
-0.294387
-0.294387
-0.294387
-0.294387
-0.294387
-0.294387
-0.294387
-0.294391
-0.294397
-0.298789
-0.298789
-0.298789
-0.298789
-0.298789
-0.298789
-0.298789
-0.298789
-0.298794
-0.2988
-0.303191
-0.303191
-0.303191
-0.303191
-0.303191
-0.303191
-0.303191
-0.303191
-0.303197
-0.303203
-0.307594
-0.307594
-0.307594
-0.307594
-0.307594
-0.307594
-0.307594
-0.307594
-0.307599
-0.307606
-0.311996
-0.311996
-0.311996
-0.311996
-0.311996
-0.311996
-0.311996
-0.311996
-0.312002
-0.312009
-0.316398
-0.316398
-0.316398
-0.316398
-0.316398
-0.316398
-0.316398
-0.316398
-0.316405
-0.316412
-0.320801
-0.320801
-0.320801
-0.320801
-0.320801
-0.320801
-0.320801
-0.320801
-0.320807
-0.320815
-0.325203
-0.325203
-0.325203
-0.325203
-0.325203
-0.325203
-0.325203
-0.325203
-0.32521
-0.325219
-0.329605
-0.329605
-0.329605
-0.329605
-0.329605
-0.329605
-0.329605
-0.329605
-0.329613
-0.329622
-0.334008
-0.334008
-0.334008
-0.334008
-0.334008
-0.334008
-0.334008
-0.334008
-0.334016
-0.334025
-0.33841
-0.33841
-0.33841
-0.33841
-0.33841
-0.33841
-0.33841
-0.33841
-0.338418
-0.338428
-0.342812
-0.342812
-0.342812
-0.342812
-0.342812
-0.342812
-0.342812
-0.342812
-0.342821
-0.342832
-0.347215
-0.347215
-0.347215
-0.347215
-0.347215
-0.347215
-0.347215
-0.347215
-0.347224
-0.347235
-0.351617
-0.351617
-0.351617
-0.351617
-0.351617
-0.351617
-0.351617
-0.351617
-0.351627
-0.351639
-0.356019
-0.356019
-0.356019
-0.356019
-0.356019
-0.356019
-0.356019
-0.356019
-0.35603
-0.356043
-0.360422
-0.360422
-0.360422
-0.360422
-0.360422
-0.360422
-0.360422
-0.360422
-0.360433
-0.360447
-0.364824
-0.364824
-0.364824
-0.364824
-0.364824
-0.364824
-0.364824
-0.364824
-0.364836
-0.364851
-0.369227
-0.369227
-0.369227
-0.369227
-0.369227
-0.369227
-0.369227
-0.369227
-0.36924
-0.369256
-0.021393
-0.0213753
-0.0213582
-0.0213419
-0.0213264
-0.0213116
-0.0212975
-0.021284
-0.0212712
-0.0212589
-0.0212471
-0.0212359
-0.0212252
-0.0212149
-0.021205
-0.0211955
-0.0211865
-0.0211778
-0.0211694
-0.0211614
-0.0211536
-0.0211462
-0.0211391
-0.0211322
-0.0211255
-0.0211191
-0.0211129
-0.0211069
-0.0211011
-0.0210956
-0.0210902
-0.021085
-0.0210801
-0.0210753
-0.0210707
-0.0210663
-0.0210621
-0.0210581
-0.0210542
-0.0210505
-0.021047
-0.0210437
-0.0210405
-0.0210374
-0.0210344
-0.0210316
-0.0210289
-0.0210262
-0.0210237
-0.0210212
-0.0210188
-0.0210165
-0.0210142
-0.021012
-0.0210099
-0.0210079
-0.0210059
-0.021004
-0.0210021
-0.0210004
-0.0209987
-0.0209972
-0.0209957
-0.0209944
-0.0209931
-0.020992
-0.0209909
-0.0209899
-0.020989
-0.0209882
-0.0209875
-0.0209868
-0.0209862
-0.0209856
-0.0209851
-0.0209846
-0.0209842
-0.0209838
-0.0209834
-0.0209831
-0.0257988
-0.0257821
-0.025766
-0.0257505
-0.0257356
-0.0257214
-0.0257077
-0.0256946
-0.0256821
-0.0256701
-0.0256586
-0.0256476
-0.025637
-0.0256269
-0.0256172
-0.0256078
-0.0255989
-0.0255903
-0.025582
-0.0255741
-0.0255665
-0.0255591
-0.025552
-0.0255452
-0.0255386
-0.0255323
-0.0255262
-0.0255202
-0.0255145
-0.025509
-0.0255037
-0.0254986
-0.0254937
-0.025489
-0.0254844
-0.02548
-0.0254759
-0.0254719
-0.025468
-0.0254644
-0.0254609
-0.0254575
-0.0254543
-0.0254513
-0.0254483
-0.0254455
-0.0254428
-0.0254401
-0.0254376
-0.0254352
-0.0254328
-0.0254305
-0.0254282
-0.0254261
-0.025424
-0.0254219
-0.02542
-0.0254181
-0.0254163
-0.0254146
-0.0254129
-0.0254114
-0.02541
-0.0254086
-0.0254074
-0.0254062
-0.0254051
-0.0254041
-0.0254032
-0.0254024
-0.0254016
-0.025401
-0.0254003
-0.0253997
-0.0253992
-0.0253987
-0.0253983
-0.0253979
-0.0253976
-0.0253973
-0.0302041
-0.0301884
-0.0301732
-0.0301584
-0.0301442
-0.0301305
-0.0301173
-0.0301046
-0.0300925
-0.0300808
-0.0300696
-0.0300588
-0.0300484
-0.0300385
-0.030029
-0.0300198
-0.030011
-0.0300025
-0.0299944
-0.0299865
-0.029979
-0.0299718
-0.0299648
-0.029958
-0.0299515
-0.0299453
-0.0299392
-0.0299334
-0.0299277
-0.0299223
-0.0299171
-0.029912
-0.0299071
-0.0299025
-0.029898
-0.0298936
-0.0298895
-0.0298855
-0.0298817
-0.0298781
-0.0298746
-0.0298713
-0.0298681
-0.029865
-0.0298621
-0.0298593
-0.0298566
-0.029854
-0.0298514
-0.029849
-0.0298466
-0.0298443
-0.0298421
-0.02984
-0.0298379
-0.0298359
-0.029834
-0.0298321
-0.0298304
-0.0298287
-0.0298271
-0.0298256
-0.0298241
-0.0298228
-0.0298215
-0.0298204
-0.0298193
-0.0298183
-0.0298174
-0.0298166
-0.0298158
-0.0298151
-0.0298144
-0.0298138
-0.0298133
-0.0298128
-0.0298124
-0.029812
-0.0298116
-0.0298113
-0.0346091
-0.0345943
-0.0345799
-0.0345658
-0.0345522
-0.0345391
-0.0345264
-0.0345142
-0.0345024
-0.034491
-0.0344801
-0.0344696
-0.0344595
-0.0344497
-0.0344404
-0.0344314
-0.0344227
-0.0344144
-0.0344064
-0.0343987
-0.0343913
-0.0343841
-0.0343772
-0.0343706
-0.0343642
-0.034358
-0.0343521
-0.0343463
-0.0343408
-0.0343354
-0.0343302
-0.0343252
-0.0343204
-0.0343158
-0.0343114
-0.0343071
-0.034303
-0.0342991
-0.0342953
-0.0342917
-0.0342882
-0.0342849
-0.0342817
-0.0342787
-0.0342758
-0.034273
-0.0342703
-0.0342677
-0.0342652
-0.0342627
-0.0342604
-0.0342582
-0.034256
-0.0342539
-0.0342518
-0.0342498
-0.034248
-0.0342461
-0.0342444
-0.0342427
-0.0342411
-0.0342396
-0.0342382
-0.0342369
-0.0342356
-0.0342345
-0.0342334
-0.0342324
-0.0342315
-0.0342306
-0.0342299
-0.0342292
-0.0342285
-0.0342279
-0.0342274
-0.0342269
-0.0342264
-0.034226
-0.0342256
-0.0342253
-0.0390137
-0.0389998
-0.0389861
-0.0389728
-0.0389598
-0.0389472
-0.038935
-0.0389232
-0.0389118
-0.0389008
-0.0388902
-0.03888
-0.0388701
-0.0388606
-0.0388515
-0.0388426
-0.0388342
-0.038826
-0.0388181
-0.0388106
-0.0388033
-0.0387963
-0.0387895
-0.038783
-0.0387767
-0.0387706
-0.0387647
-0.0387591
-0.0387536
-0.0387483
-0.0387432
-0.0387383
-0.0387336
-0.038729
-0.0387246
-0.0387204
-0.0387164
-0.0387125
-0.0387087
-0.0387051
-0.0387017
-0.0386984
-0.0386953
-0.0386922
-0.0386893
-0.0386865
-0.0386839
-0.0386813
-0.0386788
-0.0386764
-0.0386741
-0.0386719
-0.0386697
-0.0386676
-0.0386656
-0.0386637
-0.0386618
-0.03866
-0.0386583
-0.0386567
-0.0386551
-0.0386536
-0.0386522
-0.0386509
-0.0386497
-0.0386485
-0.0386475
-0.0386465
-0.0386455
-0.0386447
-0.0386439
-0.0386432
-0.0386425
-0.0386419
-0.0386413
-0.0386408
-0.0386404
-0.03864
-0.0386396
-0.0386393
-0.0434182
-0.043405
-0.0433921
-0.0433794
-0.043367
-0.0433549
-0.0433432
-0.0433319
-0.0433209
-0.0433102
-0.0432999
-0.04329
-0.0432804
-0.0432711
-0.0432622
-0.0432536
-0.0432453
-0.0432373
-0.0432296
-0.0432222
-0.043215
-0.0432081
-0.0432015
-0.0431951
-0.0431889
-0.0431829
-0.0431772
-0.0431716
-0.0431662
-0.0431611
-0.0431561
-0.0431512
-0.0431466
-0.0431421
-0.0431377
-0.0431336
-0.0431296
-0.0431257
-0.043122
-0.0431185
-0.0431151
-0.0431118
-0.0431087
-0.0431057
-0.0431028
-0.0431
-0.0430974
-0.0430948
-0.0430924
-0.04309
-0.0430877
-0.0430855
-0.0430834
-0.0430814
-0.0430794
-0.0430775
-0.0430756
-0.0430739
-0.0430722
-0.0430706
-0.0430691
-0.0430676
-0.0430662
-0.0430649
-0.0430637
-0.0430625
-0.0430615
-0.0430605
-0.0430595
-0.0430587
-0.0430579
-0.0430571
-0.0430565
-0.0430559
-0.0430553
-0.0430548
-0.0430543
-0.0430539
-0.0430536
-0.0430532
-0.0478225
-0.04781
-0.0477977
-0.0477856
-0.0477738
-0.0477623
-0.0477511
-0.0477401
-0.0477295
-0.0477193
-0.0477093
-0.0476997
-0.0476903
-0.0476813
-0.0476726
-0.0476642
-0.0476561
-0.0476483
-0.0476408
-0.0476335
-0.0476265
-0.0476198
-0.0476133
-0.047607
-0.0476009
-0.0475951
-0.0475894
-0.047584
-0.0475787
-0.0475736
-0.0475687
-0.047564
-0.0475594
-0.047555
-0.0475507
-0.0475466
-0.0475427
-0.0475389
-0.0475352
-0.0475317
-0.0475283
-0.0475251
-0.047522
-0.047519
-0.0475162
-0.0475134
-0.0475108
-0.0475083
-0.0475058
-0.0475035
-0.0475013
-0.0474991
-0.047497
-0.047495
-0.047493
-0.0474912
-0.0474894
-0.0474877
-0.047486
-0.0474844
-0.0474829
-0.0474815
-0.0474801
-0.0474788
-0.0474776
-0.0474765
-0.0474754
-0.0474744
-0.0474735
-0.0474726
-0.0474718
-0.0474711
-0.0474704
-0.0474698
-0.0474692
-0.0474687
-0.0474682
-0.0474678
-0.0474675
-0.0474672
-0.0522266
-0.0522148
-0.0522031
-0.0521916
-0.0521804
-0.0521693
-0.0521586
-0.0521481
-0.0521379
-0.052128
-0.0521184
-0.052109
-0.0521
-0.0520912
-0.0520828
-0.0520746
-0.0520667
-0.0520591
-0.0520517
-0.0520446
-0.0520378
-0.0520312
-0.0520248
-0.0520187
-0.0520128
-0.052007
-0.0520015
-0.0519962
-0.051991
-0.051986
-0.0519812
-0.0519766
-0.0519721
-0.0519677
-0.0519635
-0.0519595
-0.0519556
-0.0519519
-0.0519483
-0.0519448
-0.0519415
-0.0519383
-0.0519352
-0.0519322
-0.0519294
-0.0519267
-0.0519241
-0.0519216
-0.0519192
-0.0519169
-0.0519147
-0.0519126
-0.0519105
-0.0519085
-0.0519066
-0.0519048
-0.0519031
-0.0519014
-0.0518997
-0.0518982
-0.0518967
-0.0518953
-0.0518939
-0.0518927
-0.0518915
-0.0518903
-0.0518893
-0.0518883
-0.0518873
-0.0518865
-0.0518857
-0.0518849
-0.0518843
-0.0518837
-0.0518831
-0.0518826
-0.0518821
-0.0518817
-0.0518813
-0.051881
-0.0566306
-0.0566194
-0.0566083
-0.0565974
-0.0565866
-0.0565761
-0.0565658
-0.0565558
-0.0565459
-0.0565364
-0.0565271
-0.0565181
-0.0565093
-0.0565008
-0.0564926
-0.0564847
-0.056477
-0.0564696
-0.0564624
-0.0564555
-0.0564488
-0.0564424
-0.0564362
-0.0564302
-0.0564244
-0.0564188
-0.0564134
-0.0564082
-0.0564031
-0.0563983
-0.0563936
-0.056389
-0.0563846
-0.0563803
-0.0563762
-0.0563723
-0.0563684
-0.0563647
-0.0563612
-0.0563578
-0.0563545
-0.0563513
-0.0563483
-0.0563454
-0.0563426
-0.0563399
-0.0563373
-0.0563349
-0.0563325
-0.0563303
-0.0563281
-0.056326
-0.056324
-0.056322
-0.0563202
-0.0563184
-0.0563167
-0.056315
-0.0563134
-0.0563119
-0.0563104
-0.056309
-0.0563077
-0.0563064
-0.0563053
-0.0563041
-0.0563031
-0.0563021
-0.0563012
-0.0563003
-0.0562995
-0.0562988
-0.0562981
-0.0562975
-0.0562969
-0.0562964
-0.056296
-0.0562956
-0.0562952
-0.0562949
-0.0610345
-0.0610238
-0.0610133
-0.0610029
-0.0609927
-0.0609826
-0.0609728
-0.0609632
-0.0609537
-0.0609445
-0.0609356
-0.0609269
-0.0609184
-0.0609102
-0.0609022
-0.0608945
-0.0608871
-0.0608799
-0.0608729
-0.0608662
-0.0608597
-0.0608534
-0.0608473
-0.0608415
-0.0608358
-0.0608304
-0.0608251
-0.06082
-0.0608151
-0.0608104
-0.0608058
-0.0608013
-0.060797
-0.0607928
-0.0607888
-0.0607849
-0.0607811
-0.0607775
-0.060774
-0.0607706
-0.0607674
-0.0607643
-0.0607613
-0.0607584
-0.0607557
-0.060753
-0.0607505
-0.0607481
-0.0607457
-0.0607435
-0.0607414
-0.0607393
-0.0607373
-0.0607354
-0.0607336
-0.0607319
-0.0607302
-0.0607286
-0.060727
-0.0607255
-0.0607241
-0.0607227
-0.0607214
-0.0607202
-0.060719
-0.0607179
-0.0607168
-0.0607159
-0.0607149
-0.0607141
-0.0607133
-0.0607126
-0.0607119
-0.0607113
-0.0607107
-0.0607102
-0.0607098
-0.0607094
-0.060709
-0.0607087
-0.0654382
-0.0654282
-0.0654182
-0.0654083
-0.0653985
-0.065389
-0.0653795
-0.0653703
-0.0653613
-0.0653524
-0.0653438
-0.0653354
-0.0653273
-0.0653193
-0.0653116
-0.0653041
-0.0652969
-0.0652899
-0.0652831
-0.0652766
-0.0652703
-0.0652642
-0.0652583
-0.0652526
-0.0652471
-0.0652418
-0.0652367
-0.0652317
-0.0652269
-0.0652223
-0.0652178
-0.0652135
-0.0652092
-0.0652052
-0.0652012
-0.0651974
-0.0651937
-0.0651901
-0.0651867
-0.0651834
-0.0651802
-0.0651771
-0.0651742
-0.0651714
-0.0651686
-0.065166
-0.0651635
-0.0651612
-0.0651589
-0.0651567