/*--------------------------------*- C++ -*----------------------------------*\
| =========                 |                                                 |
| \\      /  F ield         | OpenFOAM: The Open Source CFD Toolbox           |
|  \\    /   O peration     | Version:  2406                                  |
|   \\  /    A nd           | Website:  www.openfoam.com                      |
|    \\/     M anipulation  |                                                 |
\*---------------------------------------------------------------------------*/
FoamFile
{
    version     2.0;
    format      ascii;
    arch        "LSB;label=32;scalar=64";
    class       volScalarField;
    location    "60";
    object      p_rgh;
}
// * * * * * * * * * * * * * * * * * * * * * * * * * * * * * * * * * * * * * //

dimensions      [0 2 -2 0 0 0 0];

internalField   nonuniform List<scalar> 
10000
(
0.000322099
0.00032251
0.000324037
0.000326852
0.000330171
0.000330866
0.000330618
0.000330614
0.000356622
0.000382831
0.00032193
0.000322597
0.000324179
0.000326855
0.000330076
0.000331131
0.000330709
0.000330711
0.000356831
0.000382946
0.000320744
0.000321961
0.000323948
0.000326892
0.000330463
0.000332375
0.000331995
0.000332
0.000357416
0.000383259
0.000318344
0.000320415
0.000323217
0.000326943
0.000331467
0.000334909
0.000334654
0.000334659
0.000358587
0.000383894
0.000314832
0.000317989
0.000321969
0.000326976
0.000333073
0.000338576
0.000338437
0.000338441
0.000360547
0.00038502
0.000310297
0.000314736
0.000320218
0.000326984
0.000335251
0.000343212
0.000343147
0.000343148
0.000363481
0.000386851
0.000304697
0.000310654
0.000317983
0.000326989
0.00033802
0.00034887
0.00034884
0.00034884
0.000367572
0.000389644
0.000297835
0.000305635
0.000315229
0.000327016
0.000341469
0.000355788
0.000355775
0.000355775
0.00037304
0.000393696
0.000289408
0.000299476
0.000311861
0.000327081
0.000345752
0.000364298
0.000364293
0.000364293
0.00038017
0.000399346
0.000279044
0.00029191
0.000307737
0.000327189
0.000351055
0.000374786
0.000374784
0.000374785
0.00038932
0.000406987
0.000408002
0.000430752
0.000451335
0.000470236
0.000487766
0.00050414
0.000519516
0.000534015
0.00054773
0.000560737
0.000573097
0.000584861
0.000596073
0.000606771
0.000616988
0.000626755
0.000636101
0.000645052
0.000653633
0.000661869
0.000669782
0.000677394
0.000684725
0.000691793
0.000698614
0.0007052
0.000711563
0.000717712
0.00072365
0.000729383
0.000734911
0.000740234
0.000745352
0.000750263
0.000754965
0.00075946
0.000763748
0.000767833
0.000771719
0.000775415
0.000778929
0.000782275
0.000785463
0.000788511
0.000791431
0.00079424
0.000796952
0.000799579
0.000802133
0.000804624
0.000807058
0.000809438
0.000811767
0.000814042
0.00081626
0.000818415
0.0008205
0.000822506
0.000824425
0.000826248
0.000827968
0.000829579
0.000831076
0.000832457
0.000833722
0.000834873
0.000835914
0.000836852
0.000837694
0.00083845
0.00083913
0.000839743
0.000840299
0.000840807
0.000841273
0.000841703
0.000842099
0.000842463
0.000842793
0.000843084
0.000408075
0.000430805
0.000451376
0.00047027
0.000487794
0.000504164
0.000519537
0.000534034
0.000547747
0.000560753
0.000573111
0.000584875
0.000596086
0.000606783
0.000616999
0.000626765
0.00063611
0.000645061
0.000653641
0.000661877
0.000669789
0.000677401
0.000684732
0.0006918
0.00069862
0.000705206
0.000711569
0.000717717
0.000723655
0.000729388
0.000734916
0.000740239
0.000745356
0.000750267
0.000754969
0.000759464
0.000763751
0.000767836
0.000771722
0.000775417
0.000778932
0.000782277
0.000785466
0.000788513
0.000791434
0.000794243
0.000796954
0.000799581
0.000802136
0.000804627
0.00080706
0.000809441
0.000811769
0.000814045
0.000816262
0.000818417
0.000820502
0.000822508
0.000824426
0.00082625
0.00082797
0.00082958
0.000831077
0.000832458
0.000833723
0.000834874
0.000835915
0.000836852
0.000837695
0.000838451
0.000839131
0.000839744
0.000840301
0.000840808
0.000841275
0.000841704
0.000842101
0.000842465
0.000842795
0.000843086
0.000408274
0.000430948
0.000451488
0.000470361
0.000487871
0.000504231
0.000519596
0.000534086
0.000547795
0.000560796
0.000573151
0.000584911
0.000596119
0.000606814
0.000617028
0.000626793
0.000636136
0.000645085
0.000653665
0.000661899
0.000669811
0.000677422
0.000684752
0.000691818
0.000698638
0.000705223
0.000711585
0.000717732
0.000723669
0.000729401
0.000734927
0.000740249
0.000745365
0.000750275
0.000754976
0.00075947
0.000763758
0.000767842
0.000771728
0.000775423
0.000778938
0.000782283
0.000785472
0.00078852
0.000791441
0.00079425
0.000796962
0.00079959
0.000802145
0.000804636
0.000807069
0.00080945
0.000811778
0.000814052
0.000816269
0.000818423
0.000820507
0.000822512
0.00082443
0.000826252
0.000827971
0.000829582
0.000831078
0.000832459
0.000833723
0.000834874
0.000835916
0.000836854
0.000837697
0.000838453
0.000839134
0.000839748
0.000840305
0.000840813
0.00084128
0.000841711
0.000842108
0.000842472
0.000842802
0.000843093
0.000408682
0.000431244
0.000451719
0.000470551
0.000488032
0.00050437
0.000519718
0.000534195
0.000547893
0.000560884
0.000573232
0.000584985
0.000596188
0.000606878
0.000617088
0.000626849
0.00063619
0.000645136
0.000653713
0.000661945
0.000669855
0.000677464
0.000684793
0.000691858
0.000698675
0.000705258
0.000711618
0.000717763
0.000723698
0.000729426
0.000734951
0.00074027
0.000745384
0.000750291
0.000754991
0.000759483
0.00076377
0.000767853
0.000771738
0.000775434
0.000778949
0.000782295
0.000785485
0.000788534
0.000791457
0.000794267
0.00079698
0.000799608
0.000802164
0.000804655
0.000807088
0.000809468
0.000811795
0.000814068
0.000816283
0.000818435
0.000820517
0.00082252
0.000824436
0.000826257
0.000827975
0.000829583
0.000831079
0.000832459
0.000833724
0.000834875
0.000835917
0.000836856
0.0008377
0.000838458
0.000839141
0.000839756
0.000840315
0.000840825
0.000841293
0.000841724
0.000842121
0.000842486
0.000842816
0.000843107
0.00040942
0.000431784
0.000452143
0.000470899
0.000488326
0.000504625
0.000519943
0.000534395
0.000548073
0.000561048
0.000573381
0.000585123
0.000596315
0.000606996
0.000617199
0.000626953
0.000636288
0.000645229
0.000653802
0.000662031
0.000669937
0.000677543
0.000684868
0.000691929
0.000698744
0.000705323
0.000711679
0.000717819
0.00072375
0.000729474
0.000734994
0.000740308
0.000745418
0.000750322
0.000755018
0.000759508
0.000763792
0.000767874
0.000771759
0.000775455
0.000778971
0.000782318
0.00078551
0.000788561
0.000791485
0.000794298
0.000797013
0.000799642
0.000802198
0.000804689
0.000807122
0.0008095
0.000811826
0.000814096
0.000816309
0.000818458
0.000820536
0.000822535
0.000824448
0.000826265
0.00082798
0.000829587
0.000831081
0.00083246
0.000833725
0.000834877
0.00083592
0.000836861
0.000837707
0.000838468
0.000839153
0.000839772
0.000840333
0.000840845
0.000841315
0.000841748
0.000842147
0.000842512
0.000842842
0.000843134
0.000410661
0.000432705
0.00045287
0.000471498
0.000488835
0.000505066
0.000520331
0.000534742
0.000548385
0.000561331
0.00057364
0.000585361
0.000596536
0.000607201
0.000617391
0.000627134
0.000636459
0.000645392
0.000653957
0.000662179
0.000670079
0.000677679
0.000684998
0.000692053
0.000698861
0.000705434
0.000711783
0.000717917
0.00072384
0.000729556
0.000735068
0.000740376
0.000745479
0.000750376
0.000755067
0.000759552
0.000763833
0.000767913
0.000771797
0.000775493
0.00077901
0.00078236
0.000785554
0.000788608
0.000791536
0.000794351
0.000797069
0.0007997
0.000802257
0.000804748
0.00080718
0.000809556
0.000811878
0.000814144
0.000816352
0.000818495
0.000820568
0.000822561
0.000824468
0.000826281
0.000827991
0.000829595
0.000831087
0.000832465
0.000833729
0.000834882
0.000835927
0.000836871
0.000837722
0.000838487
0.000839176
0.000839799
0.000840364
0.00084088
0.000841353
0.000841789
0.000842189
0.000842556
0.000842887
0.000843178
0.00041264
0.000434201
0.000454064
0.000472487
0.000489676
0.000505797
0.000520976
0.000535317
0.000548904
0.000561803
0.000574072
0.000585758
0.000596904
0.000607544
0.000617712
0.000627436
0.000636744
0.000645662
0.000654215
0.000662425
0.000670314
0.000677904
0.000685213
0.000692259
0.000699056
0.000705619
0.000711956
0.000718078
0.000723989
0.000729694
0.000735194
0.00074049
0.000745582
0.00075047
0.000755152
0.00075963
0.000763906
0.000767982
0.000771865
0.000775561
0.000779079
0.000782432
0.00078563
0.000788689
0.00079162
0.00079444
0.00079716
0.000799794
0.000802352
0.000804843
0.000807272
0.000809645
0.000811962
0.000814222
0.000816422
0.000818557
0.000820621
0.000822606
0.000824504
0.000826309
0.000828014
0.000829612
0.0008311
0.000832477
0.000833741
0.000834895
0.000835944
0.000836892
0.000837748
0.000838519
0.000839214
0.000839844
0.000840415
0.000840937
0.000841415
0.000841854
0.000842258
0.000842626
0.000842957
0.000843249
0.000415655
0.000436542
0.000455958
0.000474068
0.000491028
0.000506975
0.000522017
0.000536249
0.000549744
0.000562568
0.000574773
0.000586405
0.000597503
0.000608102
0.000618234
0.000627927
0.000637208
0.000646103
0.000654634
0.000662824
0.000670696
0.000678268
0.000685561
0.00069259
0.000699371
0.000705916
0.000712236
0.00071834
0.000724233
0.000729919
0.000735401
0.00074068
0.000745756
0.000750628
0.000755298
0.000759766
0.000764033
0.000768104
0.000771983
0.000775679
0.000779199
0.000782554
0.000785757
0.00078882
0.000791758
0.000794582
0.000797306
0.000799943
0.000802501
0.000804991
0.000807417
0.000809784
0.000812093
0.000814343
0.000816533
0.000818656
0.000820707
0.00082268
0.000824567
0.000826361
0.000828056
0.000829647
0.00083113
0.000832504
0.000833768
0.000834925
0.000835977
0.000836931
0.000837794
0.000838574
0.000839278
0.000839917
0.000840497
0.000841026
0.000841511
0.000841956
0.000842363
0.000842734
0.000843066
0.000843358
0.000420073
0.000440079
0.00045887
0.000476526
0.000493146
0.000508829
0.000523662
0.000537724
0.000551079
0.000563784
0.000575889
0.000587435
0.000598458
0.000608993
0.000619069
0.000628712
0.00063795
0.000646805
0.000655301
0.00066346
0.000671302
0.000678846
0.000686112
0.000693114
0.000699868
0.000706387
0.00071268
0.000718756
0.000724622
0.000730281
0.000735736
0.00074099
0.000746042
0.000750893
0.000755544
0.000759996
0.000764251
0.000768313
0.000772187
0.00077588
0.0007794
0.000782758
0.000785966
0.000789034
0.000791977
0.000794806
0.000797534
0.000800173
0.000802731
0.000805217
0.000807638
0.000809996
0.000812294
0.000814531
0.000816705
0.000818811
0.000820846
0.000822801
0.000824672
0.000826452
0.000828135
0.000829716
0.000831192
0.000832562
0.000833826
0.000834984
0.000836042
0.000837004
0.000837876
0.000838667
0.000839383
0.000840033
0.000840624
0.000841164
0.000841657
0.000842109
0.000842522
0.000842896
0.000843231
0.000843525
0.000426329
0.000445251
0.000463223
0.000480254
0.000496389
0.000511687
0.00052621
0.000540017
0.00055316
0.000565686
0.000577637
0.000589051
0.00059996
0.000610395
0.000620382
0.000629949
0.000639117
0.00064791
0.00065635
0.000664458
0.000672252
0.000679751
0.000686973
0.000693933
0.000700646
0.000707123
0.000713375
0.00071941
0.000725235
0.000730855
0.000736272
0.000741489
0.000746507
0.000751327
0.000755951
0.00076038
0.000764617
0.000768664
0.000772528
0.000776216
0.000779734
0.000783093
0.000786303
0.000789375
0.000792322
0.000795155
0.000797885
0.000800523
0.000803079
0.000805559
0.00080797
0.000810316
0.000812598
0.000814816
0.000816969
0.000819054
0.000821066
0.000822999
0.000824849
0.00082661
0.000828276
0.000829844
0.000831311
0.000832676
0.000833938
0.000835099
0.000836163
0.000837133
0.000838017
0.000838821
0.000839551
0.000840215
0.00084082
0.000841372
0.000841877
0.000842338
0.000842757
0.000843137
0.000843475
0.000843771
0.000843325
0.000843499
0.000843617
0.0008437
0.000843759
0.000843801
0.000843829
0.000843846
0.000843855
0.000843859
0.000843327
0.000843501
0.00084362
0.000843703
0.000843762
0.000843803
0.000843831
0.000843848
0.000843857
0.000843859
0.000843334
0.000843508
0.000843627
0.00084371
0.000843768
0.000843809
0.000843835
0.000843851
0.00084386
0.000843862
0.000843349
0.000843523
0.000843641
0.000843724
0.000843781
0.00084382
0.000843845
0.00084386
0.000843867
0.000843869
0.000843375
0.000843549
0.000843667
0.000843749
0.000843804
0.000843841
0.000843864
0.000843877
0.000843883
0.000843885
0.000843419
0.000843594
0.000843711
0.00084379
0.000843843
0.000843877
0.000843898
0.00084391
0.000843916
0.000843918
0.00084349
0.000843664
0.00084378
0.000843858
0.000843908
0.00084394
0.000843959
0.000843969
0.000843974
0.000843976
0.0008436
0.000843774
0.000843889
0.000843964
0.000844013
0.000844042
0.00084406
0.00084407
0.000844074
0.000844076
0.000843767
0.000843941
0.000844055
0.000844129
0.000844176
0.000844205
0.000844222
0.000844231
0.000844235
0.000844237
0.000844015
0.000844191
0.000844306
0.00084438
0.000844426
0.000844454
0.000844471
0.00084448
0.000844484
0.000844486
0.000267335
0.000283365
0.000303087
0.000327326
0.000357068
0.000386649
0.000386648
0.000386649
0.000399984
0.000416255
0.00025535
0.000274622
0.000298331
0.000327472
0.000363229
0.000398794
0.000398794
0.000398795
0.000411123
0.000426199
0.000243365
0.000265879
0.000293577
0.000327619
0.000369391
0.00041094
0.00041094
0.000410941
0.000422414
0.000436466
0.00023138
0.000257136
0.000288823
0.000327767
0.000375554
0.000423087
0.000423087
0.000423087
0.000433818
0.000446973
0.000219395
0.000248393
0.000284068
0.000327915
0.000381717
0.000435233
0.000435233
0.000435233
0.000445306
0.000457664
0.000207411
0.000239651
0.000279314
0.000328063
0.000387881
0.000447379
0.000447379
0.00044738
0.000456861
0.0004685
0.000195426
0.000230909
0.000274561
0.000328211
0.000394044
0.000459526
0.000459526
0.000459526
0.00046847
0.000479454
0.000183442
0.000222166
0.000269806
0.000328359
0.000400207
0.000471672
0.000471672
0.000471673
0.000480122
0.000490503
0.000171457
0.000213423
0.000265052
0.000328507
0.00040637
0.000483818
0.000483818
0.000483819
0.000491811
0.000501633
0.000159473
0.000204681
0.000260298
0.000328655
0.000412534
0.000495965
0.000495965
0.000495965
0.000503531
0.000512832
0.000147488
0.000195938
0.000255544
0.000328802
0.000418696
0.000508111
0.000508111
0.000508111
0.000515278
0.000524088
0.000135503
0.000187196
0.00025079
0.000328951
0.00042486
0.000520257
0.000520257
0.000520258
0.000527047
0.000535396
0.000123519
0.000178453
0.000246036
0.000329099
0.000431023
0.000532403
0.000532403
0.000532404
0.000538836
0.000546747
0.000111534
0.00016971
0.000241282
0.000329247
0.000437186
0.00054455
0.00054455
0.00054455
0.000550643
0.000558137
9.95494e-05
0.000160968
0.000236528
0.000329395
0.000443349
0.000556696
0.000556696
0.000556696
0.000562465
0.000569562
8.75648e-05
0.000152225
0.000231774
0.000329543
0.000449513
0.000568842
0.000568842
0.000568842
0.000574301
0.000581017
7.558e-05
0.000143482
0.000227019
0.000329691
0.000455675
0.000580988
0.000580988
0.000580989
0.000586149
0.000592499
6.35952e-05
0.00013474
0.000222265
0.000329838
0.000461838
0.000593135
0.000593135
0.000593135
0.000598009
0.000604007
5.16106e-05
0.000125997
0.000217511
0.000329986
0.000468001
0.000605281
0.000605281
0.000605281
0.000609878
0.000615536
3.96259e-05
0.000117254
0.000212757
0.000330134
0.000474164
0.000617427
0.000617427
0.000617427
0.000621757
0.000627087
2.76412e-05
0.000108512
0.000208003
0.000330282
0.000480327
0.000629573
0.000629573
0.000629574
0.000633644
0.000638655
1.56566e-05
9.97691e-05
0.000203249
0.00033043
0.000486491
0.00064172
0.00064172
0.00064172
0.000645539
0.000650241
3.67198e-06
9.10266e-05
0.000198495
0.000330579
0.000492654
0.000653866
0.000653866
0.000653866
0.000657441
0.000661843
-8.3129e-06
8.22834e-05
0.00019374
0.000330725
0.000498816
0.000666012
0.000666012
0.000666012
0.000669349
0.000673459
-2.02976e-05
7.35407e-05
0.000188986
0.000330873
0.000504979
0.000678158
0.000678158
0.000678158
0.000681263
0.000685087
-3.22824e-05
6.47982e-05
0.000184232
0.000331022
0.000511143
0.000690304
0.000690304
0.000690304
0.000693183
0.000696729
-4.4267e-05
5.60558e-05
0.000179478
0.00033117
0.000517306
0.00070245
0.00070245
0.000702451
0.000705108
0.000708381
-5.62517e-05
4.7313e-05
0.000174723
0.000331318
0.000523469
0.000714597
0.000714597
0.000714597
0.000717037
0.000720044
-6.82365e-05
3.857e-05
0.000169969
0.000331465
0.000529631
0.000726743
0.000726743
0.000726743
0.000728971
0.000731716
-8.02215e-05
2.98267e-05
0.000165214
0.000331612
0.000535793
0.000738889
0.000738889
0.000738889
0.000740908
0.000743397
-9.22064e-05
2.10839e-05
0.00016046
0.00033176
0.000541957
0.000751035
0.000751035
0.000751035
0.000752849
0.000755086
-0.000104191
1.23416e-05
0.000155706
0.000331909
0.000548121
0.000763181
0.000763181
0.000763181
0.000764794
0.000766782
-0.000116176
3.59929e-06
0.000150952
0.000332057
0.000554284
0.000775327
0.000775327
0.000775327
0.000776741
0.000778485
-0.00012816
-5.14346e-06
0.000146198
0.000332205
0.000560447
0.000787474
0.000787473
0.000787474
0.000788691
0.000790194
-0.000140145
-1.38867e-05
0.000141443
0.000332352
0.000566609
0.00079962
0.00079962
0.00079962
0.000800644
0.000801908
-0.00015213
-2.26292e-05
0.000136689
0.0003325
0.000572773
0.000811766
0.000811766
0.000811766
0.000812598
0.000813626
-0.000164115
-3.13717e-05
0.000131936
0.000332649
0.000578937
0.000823912
0.000823912
0.000823912
0.000824555
0.000825349
-0.0001761
-4.01146e-05
0.000127181
0.000332796
0.000585099
0.000836058
0.000836058
0.000836058
0.000836512
0.000837075
-0.000188084
-4.88577e-05
0.000122426
0.000332943
0.000591261
0.000848204
0.000848204
0.000848204
0.000848471
0.000848804
-0.000200069
-5.76008e-05
0.000117671
0.00033309
0.000597424
0.00086035
0.00086035
0.00086035
0.000860431
0.000860534
-0.000212054
-6.63435e-05
0.000112917
0.000333239
0.000603587
0.000872496
0.000872496
0.000872496
0.000872392
0.000872266
-0.000224039
-7.5086e-05
0.000108164
0.000333387
0.000609751
0.000884642
0.000884642
0.000884642
0.000884352
0.000883999
-0.000236024
-8.38286e-05
0.00010341
0.000333535
0.000615914
0.000896788
0.000896788
0.000896788
0.000896313
0.000895732
-0.000248009
-9.25719e-05
9.86545e-05
0.000333682
0.000622076
0.000908934
0.000908934
0.000908934
0.000908273
0.000907463
-0.000259994
-0.000101315
9.38998e-05
0.000333829
0.000628238
0.00092108
0.00092108
0.00092108
0.000920233
0.000919194
-0.000271978
-0.000110057
8.91464e-05
0.000333978
0.000634403
0.000933226
0.000933226
0.000933226
0.000932192
0.000930922
-0.000283963
-0.0001188
8.43923e-05
0.000334126
0.000640566
0.000945372
0.000945372
0.000945372
0.000944149
0.000942647
-0.000295948
-0.000127543
7.96376e-05
0.000334273
0.000646728
0.000957518
0.000957518
0.000957518
0.000956105
0.000954368
-0.000307933
-0.000136286
7.48826e-05
0.00033442
0.00065289
0.000969665
0.000969664
0.000969664
0.000968058
0.000966085
-0.000319918
-0.00014503
7.01276e-05
0.000334567
0.000659052
0.00098181
0.00098181
0.00098181
0.000980009
0.000977796
-0.000331903
-0.000153773
6.53728e-05
0.000334714
0.000665214
0.000993956
0.000993956
0.000993956
0.000991957
0.000989501
-0.000343888
-0.000162515
6.06199e-05
0.000334864
0.000671379
0.0010061
0.0010061
0.0010061
0.0010039
0.0010012
-0.000355873
-0.000171258
5.58647e-05
0.000335011
0.000677541
0.00101825
0.00101825
0.00101825
0.00101584
0.00101289
-0.000367858
-0.000180001
5.11107e-05
0.000335159
0.000683704
0.00103039
0.00103039
0.00103039
0.00102778
0.00102457
-0.000379842
-0.000188743
4.63569e-05
0.000335307
0.000689868
0.00104254
0.00104254
0.00104254
0.00103971
0.00103624
-0.000391827
-0.000197486
4.16026e-05
0.000335455
0.000696031
0.00105469
0.00105469
0.00105469
0.00105164
0.0010479
-0.000403812
-0.000206229
3.68484e-05
0.000335603
0.000702194
0.00106683
0.00106683
0.00106683
0.00106357
0.00105955
-0.000415797
-0.000214972
3.20935e-05
0.00033575
0.000708356
0.00107898
0.00107898
0.00107898
0.00107548
0.00107118
-0.000427782
-0.000223714
2.73399e-05
0.000335899
0.00071452
0.00109112
0.00109112
0.00109112
0.00108739
0.0010828
-0.000439767
-0.000232457
2.25853e-05
0.000336046
0.000720683
0.00110327
0.00110327
0.00110327
0.0010993
0.00109441
-0.000451752
-0.0002412
1.78305e-05
0.000336193
0.000726845
0.00111542
0.00111542
0.00111542
0.00111119
0.001106
-0.000463737
-0.000249944
1.30752e-05
0.00033634
0.000733007
0.00112756
0.00112756
0.00112756
0.00112308
0.00111757
-0.000475722
-0.000258687
8.32057e-06
0.000336487
0.000739169
0.00113971
0.00113971
0.00113971
0.00113496
0.00112912
-0.000487707
-0.000267429
3.56744e-06
0.000336637
0.000745334
0.00115185
0.00115185
0.00115185
0.00114683
0.00114064
-0.000499691
-0.000276172
-1.1865e-06
0.000336785
0.000751498
0.001164
0.001164
0.001164
0.00115868
0.00115215
-0.000511676
-0.000284914
-5.94033e-06
0.000336933
0.000757661
0.00117615
0.00117615
0.00117615
0.00117053
0.00116362
-0.000523661
-0.000293657
-1.06947e-05
0.000337081
0.000763824
0.00118829
0.00118829
0.00118829
0.00118236
0.00117506
-0.000535646
-0.000302401
-1.545e-05
0.000337227
0.000769985
0.00120044
0.00120044
0.00120044
0.00119417
0.00118647
-0.000547631
-0.000311143
-2.02039e-05
0.000337376
0.000776149
0.00121258
0.00121258
0.00121258
0.00120597
0.00119784
-0.000559616
-0.000319887
-2.49593e-05
0.000337522
0.000782312
0.00122473
0.00122473
0.00122473
0.00121774
0.00120916
-0.000571601
-0.000328629
-2.97132e-05
0.000337671
0.000788475
0.00123688
0.00123688
0.00123688
0.0012295
0.00122044
-0.000583586
-0.000337372
-3.44673e-05
0.000337819
0.000794638
0.00124902
0.00124902
0.00124902
0.00124122
0.00123165
-0.000595571
-0.000346115
-3.92218e-05
0.000337966
0.0008008
0.00126117
0.00126117
0.00126117
0.00125292
0.00124279
-0.000607556
-0.000354858
-4.39768e-05
0.000338113
0.000806962
0.00127331
0.00127331
0.00127331
0.00126458
0.00125386
-0.000619541
-0.000363601
-4.87307e-05
0.000338261
0.000813126
0.00128546
0.00128546
0.00128546
0.00127619
0.00126482
-0.000631526
-0.000372344
-5.34852e-05
0.000338409
0.000819289
0.00129761
0.00129761
0.00129761
0.00128775
0.00127566
-0.000643511
-0.000381087
-5.824e-05
0.000338555
0.00082545
0.00130975
0.00130975
0.00130975
0.00129924
0.00128636
-0.000655496
-0.000389831
-6.29959e-05
0.000338701
0.000831609
0.0013219
0.0013219
0.0013219
0.00131064
0.00129687
-0.000667481
-0.000398575
-6.7752e-05
0.000338846
0.000837766
0.00133404
0.00133404
0.00133404
0.00132193
0.00130713
-0.000679469
-0.000407327
-7.25224e-05
0.000338974
0.000843907
0.00134619
0.00134619
0.00134619
0.00133307
0.00131707
0.000434224
0.000451989
0.000469028
0.00048531
0.000500841
0.000515648
0.000529765
0.000543233
0.000556091
0.000568373
0.000580115
0.000591347
0.000602097
0.000612392
0.000622256
0.000631713
0.000640783
0.000649487
0.000657846
0.000665879
0.000673603
0.000681037
0.000688196
0.000695096
0.00070175
0.000708169
0.000714365
0.000720344
0.000726115
0.000731682
0.000737049
0.000742219
0.000747193
0.000751974
0.000756562
0.00076096
0.000765171
0.000769198
0.000773046
0.000776722
0.000780233
0.000783588
0.000786797
0.000789869
0.000792816
0.000795648
0.000798376
0.00080101
0.000803559
0.000806029
0.000808426
0.000810754
0.000813016
0.000815212
0.00081734
0.000819398
0.000821383
0.000823291
0.000825116
0.000826854
0.000828502
0.000830054
0.00083151
0.000832868
0.000834127
0.00083529
0.000836359
0.000837339
0.000838234
0.000839051
0.000839795
0.000840474
0.000841093
0.000841659
0.000842175
0.000842646
0.000843074
0.00084346
0.000843804
0.000844103
0.000442943
0.000459619
0.000475737
0.000491247
0.000506134
0.0005204
0.000534062
0.000547144
0.00055967
0.000571667
0.000583162
0.000594177
0.000604737
0.000614864
0.000624578
0.0006339
0.000642849
0.000651443
0.000659702
0.000667641
0.000675279
0.00068263
0.000689711
0.000696536
0.000703117
0.000709467
0.000715594
0.000721507
0.000727214
0.000732719
0.000738027
0.000743142
0.000748065
0.000752799
0.000757345
0.000761707
0.000765887
0.000769888
0.000773716
0.000777376
0.000780874
0.00078422
0.000787422
0.000790489
0.000793431
0.000796259
0.00079898
0.000801606
0.000804143
0.000806599
0.000808978
0.000811286
0.000813525
0.000815694
0.000817795
0.000819825
0.000821782
0.000823662
0.000825461
0.000827176
0.000828803
0.000830339
0.000831783
0.000833132
0.000834387
0.000835551
0.000836624
0.000837611
0.000838516
0.000839345
0.000840103
0.000840795
0.000841428
0.000842006
0.000842534
0.000843015
0.000843451
0.000843843
0.000844192
0.000844497
0.000452131
0.000467815
0.000483062
0.000497819
0.000512056
0.000525766
0.000538949
0.000551617
0.000563784
0.000575468
0.000586688
0.000597462
0.000607807
0.000617743
0.000627287
0.000636455
0.000645264
0.000653731
0.000661872
0.000669702
0.000677238
0.000684493
0.000691483
0.000698221
0.000704718
0.000710986
0.000717034
0.000722872
0.000728506
0.000733942
0.000739185
0.000744237
0.000749103
0.000753785
0.000758284
0.000762605
0.000766748
0.000770719
0.000774521
0.00077816
0.000781642
0.000784975
0.000788165
0.000791223
0.000794155
0.000796973
0.000799684
0.000802297
0.000804819
0.000807257
0.000809616
0.0008119
0.000814113
0.000816255
0.000818327
0.000820327
0.000822254
0.000824105
0.000825878
0.000827568
0.000829174
0.000830692
0.000832122
0.000833462
0.000834713
0.000835875
0.000836951
0.000837944
0.000838858
0.000839697
0.000840466
0.000841171
0.000841815
0.000842405
0.000842943
0.000843433
0.000843876
0.000844275
0.000844629
0.000844939
0.000461677
0.000476456
0.000490887
0.000504919
0.000518519
0.000531668
0.000544361
0.000556598
0.000568387
0.000579738
0.000590662
0.000601173
0.000611285
0.00062101
0.000630364
0.00063936
0.000648013
0.000656336
0.000664345
0.000672052
0.000679472
0.000686618
0.000693505
0.000700143
0.000706545
0.000712722
0.000718682
0.000724436
0.000729989
0.000735348
0.000740518
0.000745502
0.000750305
0.000754929
0.000759376
0.00076365
0.000767753
0.000771688
0.00077546
0.000779074
0.000782535
0.000785849
0.000789024
0.000792067
0.000794986
0.00079779
0.000800486
0.000803082
0.000805585
0.000808002
0.000810338
0.000812596
0.000814781
0.000816893
0.000818934
0.000820903
0.000822799
0.00082462
0.000826365
0.00082803
0.000829613
0.000831113
0.000832529
0.000833858
0.000835103
0.000836262
0.00083734
0.000838337
0.000839257
0.000840105
0.000840884
0.000841599
0.000842254
0.000842853
0.0008434
0.000843897
0.000844347
0.000844751
0.000845111
0.000845425
0.000471503
0.000485453
0.000499123
0.000512464
0.000525444
0.000538039
0.000550239
0.000562037
0.000573436
0.000584438
0.000595052
0.000605284
0.000615144
0.000624643
0.000633792
0.000642601
0.000651082
0.000659248
0.000667109
0.00067468
0.000681972
0.000688997
0.000695768
0.000702296
0.000708593
0.000714669
0.000720533
0.000726193
0.000731658
0.000736933
0.000742023
0.000746933
0.000751667
0.000756228
0.000760618
0.00076484
0.000768897
0.000772793
0.00077653
0.000780114
0.000783549
0.00078684
0.000789995
0.000793019
0.000795921
0.000798707
0.000801384
0.00080396
0.000806441
0.000808834
0.000811143
0.000813373
0.000815527
0.000817608
0.000819616
0.000821552
0.000823416
0.000825206
0.000826922
0.000828561
0.000830121
0.000831602
0.000833001
0.00083432
0.000835556
0.000836712
0.000837789
0.000838788
0.000839713
0.000840567
0.000841354
0.000842077
0.000842741
0.000843348
0.000843902
0.000844405
0.00084486
0.000845269
0.000845632
0.00084595
0.000481553
0.00049474
0.000507698
0.000520384
0.000532765
0.000544819
0.000556529
0.000567887
0.000578888
0.000589533
0.000599824
0.000609765
0.000619362
0.000628621
0.000637551
0.000646159
0.000654456
0.000662451
0.000670153
0.000677575
0.000684727
0.00069162
0.000698265
0.000704673
0.000710855
0.000716821
0.00072258
0.00072814
0.000733508
0.000738692
0.000743697
0.000748527
0.000753186
0.000757678
0.000762006
0.000766172
0.000770179
0.00077403
0.000777728
0.000781278
0.000784682
0.000787947
0.000791077
0.000794079
0.000796958
0.000799722
0.000802377
0.000804929
0.000807385
0.000809751
0.000812031
0.00081423
0.000816352
0.000818398
0.000820372
0.000822275
0.000824105
0.000825863
0.000827549
0.000829161
0.000830697
0.000832157
0.00083354
0.000834845
0.000836073
0.000837223
0.000838297
0.000839297
0.000840225
0.000841084
0.000841876
0.000842606
0.000843275
0.000843888
0.000844447
0.000844955
0.000845413
0.000845825
0.00084619
0.000846509
0.000491785
0.000504265
0.000516558
0.000528622
0.00054043
0.000551956
0.000563185
0.000574104
0.000584706
0.000594989
0.00060495
0.00061459
0.000623913
0.000632921
0.000641621
0.000650018
0.000658119
0.000665931
0.000673464
0.000680726
0.000687728
0.000694478
0.000700987
0.000707266
0.000713325
0.000719172
0.000724818
0.00073027
0.000735536
0.000740622
0.000745535
0.000750279
0.000754859
0.000759277
0.000763538
0.000767643
0.000771595
0.000775397
0.000779052
0.000782562
0.000785932
0.000789166
0.000792267
0.000795242
0.000798096
0.000800834
0.000803463
0.000805988
0.000808416
0.000810751
0.000813
0.000815165
0.000817253
0.000819264
0.000821203
0.00082307
0.000824866
0.000826591
0.000828246
0.000829829
0.00083134
0.000832779
0.000834144
0.000835435
0.000836652
0.000837795
0.000838865
0.000839863
0.000840792
0.000841653
0.000842449
0.000843182
0.000843855
0.000844472
0.000845034
0.000845544
0.000846004
0.000846415
0.00084678
0.000847099
0.000502168
0.000513992
0.000525658
0.000537134
0.000548391
0.000559407
0.000570164
0.00058065
0.000590855
0.000600772
0.000610399
0.000619733
0.000628774
0.000637523
0.000645984
0.000654159
0.000662055
0.000669675
0.000677028
0.000684122
0.000690963
0.000697562
0.000703927
0.000710068
0.000715995
0.000721716
0.000727241
0.000732578
0.000737735
0.000742718
0.000747534
0.000752187
0.000756681
0.000761021
0.00076521
0.000769249
0.000773142
0.000776891
0.000780498
0.000783965
0.000787297
0.000790495
0.000793564
0.000796508
0.000799332
0.000802041
0.00080464
0.000807135
0.000809531
0.000811834
0.000814048
0.000816179
0.00081823
0.000820205
0.000822106
0.000823937
0.000825697
0.000827389
0.000829011
0.000830566
0.000832051
0.000833467
0.000834812
0.000836088
0.000837292
0.000838427
0.000839491
0.000840486
0.000841413
0.000842274
0.000843071
0.000843806
0.000844481
0.000845098
0.000845661
0.00084617
0.000846629
0.000847039
0.000847402
0.000847718
0.000512678
0.000523887
0.000534964
0.000545881
0.000556611
0.000567133
0.000577431
0.000587491
0.000597301