/*--------------------------------*- C++ -*----------------------------------*\
| =========                 |                                                 |
| \\      /  F ield         | OpenFOAM: The Open Source CFD Toolbox           |
|  \\    /   O peration     | Version:  2406                                  |
|   \\  /    A nd           | Website:  www.openfoam.com                      |
|    \\/     M anipulation  |                                                 |
\*---------------------------------------------------------------------------*/
FoamFile
{
    version     2.0;
    format      ascii;
    arch        "LSB;label=32;scalar=64";
    class       surfaceScalarField;
    location    "60";
    object      phi;
}
// * * * * * * * * * * * * * * * * * * * * * * * * * * * * * * * * * * * * * //

dimensions      [0 3 -1 0 0 0 0];

oriented        oriented;

internalField   nonuniform List<scalar> 
19800
(
-5.82582e-12
5.82655e-12
-1.74122e-11
1.15863e-11
-2.72771e-11
9.86507e-12
-2.60051e-11
-1.2721e-12
-6.44089e-12
-1.95645e-11
-2.19998e-15
-6.4387e-12
-1.7822e-18
-2.18279e-15
-1.68883e-18
-1.14846e-19
-1.38232e-18
-3.06517e-19
-2.07985e-19
-1.17448e-18
-1.1668e-11
1.74945e-11
-3.56341e-11
3.55525e-11
-5.74635e-11
3.16948e-11
-5.56388e-11
-3.09688e-12
-1.45128e-11
-6.06899e-11
-2.10033e-14
-2.09309e-11
-3.21147e-18
-2.31185e-14
-2.08825e-18
-1.25072e-18
-1.69581e-18
-6.99253e-19
-4.60823e-19
-1.44358e-18
-1.20219e-11
2.95164e-11
-3.91897e-11
6.27211e-11
-6.57148e-11
5.82196e-11
-6.46905e-11
-4.12046e-12
-1.63477e-11
-1.09032e-10
-1.62013e-14
-3.72626e-11
-3.32252e-18
-3.92534e-14
-2.50173e-18
-2.09461e-18
-2.0661e-18
-1.13522e-18
-7.58352e-19
-1.76922e-18
-8.66188e-12
3.81791e-11
-3.07463e-11
8.48047e-11
-5.42731e-11
8.17455e-11
-5.46571e-11
-3.73606e-12
-1.31177e-11
-1.50572e-10
-7.09536e-15
-5.03731e-11
-3.19971e-18
-4.63162e-14
-2.8997e-18
-2.41933e-18
-2.49105e-18
-1.54421e-18
-1.09165e-18
-2.15843e-18
-4.59313e-12
4.27724e-11
-1.78635e-11
9.80747e-11
-3.35297e-11
9.7412e-11
-3.49905e-11
-2.27603e-12
-8.94326e-12
-1.7662e-10
-1.61162e-15
-5.9315e-11
-3.30158e-18
-4.80034e-14
-3.29838e-18
-2.44615e-18
-2.96579e-18
-1.87716e-18
-1.44232e-18
-2.61588e-18
-1.78566e-12
4.45573e-11
-7.6948e-12
1.03985e-10
-1.56221e-11
1.05339e-10
-1.74071e-11
-4.91763e-13
-6.0059e-12
-1.8802e-10
-3.21572e-16
-6.53209e-11
-3.68018e-18
-4.82855e-14
-3.73519e-18
-2.40286e-18
-3.48687e-18
-2.12586e-18
-1.78719e-18
-3.14285e-18
-5.20753e-13
4.50782e-11
-2.55762e-12
1.06022e-10
-5.82787e-12
1.08609e-10
-7.34176e-12
1.02216e-12
-4.18199e-12
-1.91181e-10
-4.90508e-16
-6.9503e-11
-4.20796e-18
-4.86873e-14
-4.23641e-18
-2.37733e-18
-4.05464e-18
-2.30804e-18
-2.10566e-18
-3.73703e-18
-1.34766e-13
4.52133e-11
-7.65648e-13
1.06652e-10
-2.05904e-12
1.09903e-10
-3.01898e-12
1.98278e-12
-2.65501e-12
-1.91545e-10
-4.87743e-16
-7.21572e-11
-4.80038e-18
-4.91792e-14
-4.80755e-18
-2.37203e-18
-4.67172e-18
-2.4443e-18
-2.38474e-18
-4.39353e-18
-4.03714e-14
4.52537e-11
-2.48443e-13
1.0686e-10
-7.93325e-13
1.10447e-10
-1.2131e-12
2.4027e-12
-1.33026e-12
-1.91429e-10
-3.52725e-16
-7.34866e-11
-5.44263e-18
-4.95076e-14
-5.44291e-18
-2.37293e-18
-5.33966e-18
-2.54796e-18
-2.61947e-18
-5.10587e-18
-1.30276e-14
4.52667e-11
-8.04389e-14
1.06927e-10
-2.93036e-13
1.1066e-10
-4.12656e-13
2.52439e-12
-4.97571e-13
-1.91344e-10
-1.50253e-16
-7.39843e-11
-6.13525e-18
-4.96534e-14
-6.13506e-18
-2.37375e-18
-6.05657e-18
-2.62686e-18
-5.86624e-18
-2.81077e-18
-1.03693e-18
-1.3783e-19
-9.38171e-19
-9.91898e-20
-8.61495e-19
-7.72166e-20
-7.98976e-19
-6.31563e-20
-7.46318e-19
-5.33712e-20
-7.00845e-19
-4.61599e-20
-6.60845e-19
-4.06545e-20
-6.25147e-19
-3.62639e-20
-5.92847e-19
-3.27116e-20
-5.63366e-19
-2.97628e-20
-5.3622e-19
-2.72377e-20
-5.11037e-19
-2.51091e-20
-4.87603e-19
-2.32436e-20
-4.65695e-19
-2.15883e-20
-4.45176e-19
-2.01689e-20
-4.25972e-19
-1.88886e-20
-4.07968e-19
-1.77454e-20
-3.91122e-19
-1.67535e-20
-3.7539e-19
-1.58401e-20
-3.60677e-19
-1.50382e-20
-3.46963e-19
-1.43154e-20
-3.34154e-19
-1.36359e-20
-3.22145e-19
-1.3051e-20
-3.10885e-19
-1.2475e-20
-3.00209e-19
-1.19237e-20
-2.90027e-19
-1.14218e-20
-2.8024e-19
-1.08802e-20
-2.70679e-19
-1.03673e-20
-2.61292e-19
-9.85675e-21
-2.51974e-19
-9.29284e-21
-2.42625e-19
-8.77049e-21
-2.33267e-19
-8.22314e-21
-2.23831e-19
-7.66131e-21
-2.14343e-19
-7.15971e-21
-2.04881e-19
-6.6354e-21
-1.95443e-19
-6.16346e-21
-1.86171e-19
-5.75021e-21
-1.77142e-19
-5.35632e-21
-1.68433e-19
-5.06828e-21
-1.60198e-19
-4.82278e-21
-1.52468e-19
-4.6468e-21
-1.45349e-19
-4.56674e-21
-1.389e-19
-4.51075e-21
-1.3311e-19
-4.53753e-21
-1.28027e-19
-4.60519e-21
-1.23591e-19
-4.67983e-21
-1.19744e-19
-4.80137e-21
-1.16435e-19
-4.9016e-21
-1.13528e-19
-4.98537e-21
-1.10924e-19
-5.05896e-21
-1.08509e-19
-5.06374e-21
-1.06132e-19
-5.03262e-21
-1.03701e-19
-4.95114e-21
-1.01097e-19
-4.79101e-21
-9.82169e-20
-4.59781e-21
-9.50209e-20
-4.33983e-21
-9.1438e-20
-4.03171e-21
-8.74601e-20
-3.71409e-21
-8.31134e-20
-3.35367e-21
-7.84041e-20
-2.99806e-21
-7.3423e-20
-2.65703e-21
-6.82419e-20
-2.32112e-21
-6.29425e-20
-2.04791e-21
-5.76536e-20
-1.8163e-21
-5.24517e-20
-1.6382e-21
-4.74477e-20
-1.5393e-21
-4.27417e-20
-1.48965e-21
-3.83889e-20
-1.51869e-21
-3.44636e-20
-1.62024e-21
-3.09852e-20
-1.77038e-21
-2.79511e-20
-1.98199e-21
-2.53543e-20
-2.22326e-21
-2.31377e-20
-2.48517e-21
-2.12424e-20
-2.7689e-21
-1.95888e-20
-3.04651e-21
-1.80691e-20
-3.31741e-21
-1.65846e-20
-3.56965e-21
-1.50228e-20
-3.78742e-21
-1.32732e-20
-3.98042e-21
-4.13061e-21
-1.12566e-20
-1.27551e-18
-3.06742e-19
-1.15441e-18
-2.21402e-19
-1.06025e-18
-1.72723e-19
-9.83398e-19
-1.41427e-19
-9.18644e-19
-1.19596e-19
-8.62708e-19
-1.03439e-19
-8.13494e-19
-9.10292e-20
-7.69568e-19
-8.11255e-20
-7.29818e-19
-7.30194e-20
-6.93534e-19
-6.6292e-20
-6.60123e-19
-6.05681e-20
-6.29126e-19
-5.57026e-20
-6.00282e-19
-5.152e-20
-5.73316e-19
-4.78752e-20
-5.48056e-19
-4.47703e-20
-5.24416e-19
-4.2076e-20
-5.02255e-19
-3.97194e-20
-4.81516e-19
-3.77109e-20
-4.62151e-19
-3.59306e-20
-4.44039e-19
-3.43452e-20
-4.27156e-19
-3.29248e-20
-4.11388e-19
-3.15597e-20
-3.96604e-19
-3.02679e-20
-3.82741e-19
-2.89608e-20
-3.69598e-19
-2.75778e-20
-3.57061e-19
-2.61735e-20
-3.45012e-19
-2.4643e-20
-3.33241e-19
-2.30258e-20
-3.21683e-19
-2.13675e-20
-3.10211e-19
-1.95963e-20
-2.987e-19
-1.78402e-20
-2.87178e-19
-1.61183e-20
-2.75563e-19
-1.44217e-20
-2.63881e-19
-1.29059e-20
-2.52232e-19
-1.15361e-20
-2.40614e-19
-1.03702e-20
-2.292e-19
-9.50402e-21
-2.18087e-19
-8.86718e-21
-2.07365e-19
-8.54984e-21
-1.97229e-19
-8.51426e-21
-1.87714e-19
-8.70506e-21
-1.7895e-19
-9.16409e-21
-1.71013e-19
-9.75851e-21
-1.63885e-19
-1.04769e-20
-1.57627e-19
-1.12705e-20
-1.52167e-19
-1.20089e-20
-1.4743e-19
-1.27e-20
-1.43356e-19
-1.32453e-20
-1.39776e-19
-1.35806e-20
-1.36568e-19
-1.37173e-20
-1.33594e-19
-1.35759e-20
-1.30665e-19
-1.31726e-20
-1.2767e-19
-1.25341e-20
-1.24464e-19
-1.16331e-20
-1.20916e-19
-1.0549e-20
-1.16979e-19
-9.31392e-21
-1.12568e-19
-7.95936e-21
-1.07669e-19
-6.59761e-21
-1.02318e-19
-5.24728e-21
-9.65199e-20
-3.98162e-21
-9.03875e-20
-2.88565e-21
-8.40104e-20
-1.96334e-21
-7.74871e-20
-1.2979e-21
-7.09771e-20
-9.01058e-22
-6.45749e-20
-7.59364e-22
-5.84155e-20
-9.11712e-22
-5.26239e-20
-1.30784e-21
-4.72669e-20
-1.93452e-21
-4.24355e-20
-2.76957e-21
-3.81549e-20
-3.72905e-21
-3.44201e-20
-4.78299e-21
-3.12237e-20
-5.86509e-21
-2.84952e-20
-6.91006e-21
-2.61616e-20
-7.89295e-21
-2.41255e-20
-8.753e-21
-2.22539e-20
-9.46058e-21
-2.04252e-20
-1.00023e-20
-1.85016e-20
-1.03584e-20
-1.63462e-20
-1.05567e-20
-1.06338e-20
-1.38612e-20
-1.56657e-18
-5.1033e-19
-1.41912e-18
-3.7012e-19
-1.30396e-18
-2.89409e-19
-1.20977e-18
-2.37216e-19
-1.1303e-18
-2.00709e-19
-1.0616e-18
-1.73655e-19
-1.00112e-18
-1.52815e-19
-9.47118e-19
-1.36173e-19
-8.98241e-19
-1.22519e-19
-8.53613e-19
-1.1119e-19
-8.12516e-19
-1.01576e-19
-7.74384e-19
-9.33756e-20
-7.38895e-19
-8.63654e-20
-7.05719e-19
-8.02956e-20
-6.74639e-19
-7.51123e-20
-6.45549e-19
-7.06584e-20
-6.1828e-19
-6.67868e-20
-5.92756e-19
-6.34832e-20
-5.68923e-19
-6.0584e-20
-5.46631e-19
-5.7983e-20
-5.25847e-19
-5.56451e-20
-5.06437e-19
-5.33921e-20
-4.88234e-19
-5.11931e-20
-4.71163e-19
-4.89618e-20
-4.54981e-19
-4.65655e-20
-4.3954e-19
-4.40726e-20
-4.24702e-19
-4.13775e-20
-4.10207e-19
-3.84844e-20
-3.95972e-19
-3.55063e-20
-3.81849e-19
-3.23722e-20
-3.67679e-19
-2.92294e-20
-3.53494e-19
-2.61887e-20
-3.39202e-19
-2.32339e-20
-3.24825e-19
-2.05838e-20
-3.10492e-19
-1.82683e-20
-2.96202e-19
-1.63269e-20
-2.82159e-19
-1.49328e-20
-2.68491e-19
-1.40028e-20
-2.55304e-19
-1.36144e-20
-2.42834e-19
-1.37587e-20
-2.31131e-19
-1.4303e-20
-2.20347e-19
-1.5287e-20
-2.10581e-19
-1.65298e-20
-2.01809e-19
-1.79385e-20
-1.94101e-19
-1.94515e-20
-1.87376e-19
-2.08513e-20
-1.81539e-19
-2.20974e-20
-1.76513e-19
-2.30671e-20
-1.72096e-19
-2.36274e-20
-1.68135e-19
-2.37852e-20
-1.64461e-19
-2.34497e-20
-1.60845e-19
-2.26167e-20
-1.57145e-19
-2.13515e-20
-1.5319e-19
-1.96382e-20
-1.48814e-19
-1.75842e-20
-1.43963e-19
-1.52903e-20
-1.38531e-19
-1.28125e-20
-1.325e-19
-1.03281e-20
-1.25915e-19
-7.91815e-21
-1.18785e-19
-5.68213e-21
-1.11242e-19
-3.77725e-21
-1.03403e-19
-2.23127e-21
-9.53833e-20
-1.14587e-21
-8.73796e-20
-5.68253e-22
-7.95106e-20
-4.63906e-22
-7.19381e-20
-8.76391e-22
-6.48179e-20
-1.74067e-21
-5.82318e-20
-2.99641e-21
-5.2289e-20
-4.60004e-21
-4.7023e-20
-6.41172e-21
-4.24261e-20
-8.3512e-21
-3.8489e-20
-1.03175e-20
-3.5127e-20
-1.21892e-20
-3.22483e-20
-1.3909e-20
-2.97347e-20
-1.53858e-20
-2.7423e-20
-1.65593e-20
-2.51632e-20
-1.74136e-20
-2.27878e-20
-1.79289e-20
-2.01286e-20
-1.81515e-20
-1.81741e-20
-1.70678e-20
-1.91921e-18
-7.506e-19
-1.74171e-18
-5.49038e-19
-1.60187e-18
-4.30925e-19
-1.48697e-18
-3.53858e-19
-1.38977e-18
-2.99717e-19
-1.30561e-18
-2.59497e-19
-1.23143e-18
-2.28419e-19
-1.16515e-18
-2.03592e-19
-1.10513e-18
-1.83229e-19
-1.0503e-18
-1.66316e-19
-9.99802e-19
-1.5198e-19
-9.52935e-19
-1.39739e-19
-9.09305e-19
-1.2929e-19
-8.68519e-19
-1.20264e-19
-8.30303e-19
-1.1252e-19
-7.94527e-19
-1.05876e-19
-7.60993e-19
-1.00108e-19
-7.29597e-19
-9.5148e-20
-7.00273e-19
-9.07971e-20
-6.72846e-19
-8.68769e-20
-6.47262e-19
-8.33284e-20
-6.23369e-19
-7.99182e-20
-6.00955e-19
-7.65557e-20
-5.79927e-19
-7.31561e-20
-5.59996e-19
-6.95294e-20
-5.40973e-19
-6.57343e-20
-5.22691e-19
-6.16815e-20
-5.04839e-19
-5.73412e-20
-4.87302e-19
-5.2875e-20
-4.69914e-19
-4.8237e-20
-4.52474e-19
-4.35782e-20
-4.35016e-19
-3.90945e-20
-4.1744e-19
-3.47837e-20
-3.99763e-19
-3.09008e-20
-3.82142e-19
-2.75506e-20
-3.64585e-19
-2.47618e-20
-3.47327e-19
-2.2758e-20
-3.30536e-19
-2.14674e-20
-3.14336e-19
-2.09397e-20
-2.99011e-19
-2.11891e-20
-2.84632e-19
-2.20246e-20
-2.71373e-19
-2.34581e-20
-2.5936e-19
-2.52786e-20
-2.48567e-19
-2.73092e-20
-2.3907e-19
-2.94625e-20
-2.3078e-19
-3.1455e-20
-2.23574e-19
-3.31827e-20
-2.17358e-19
-3.45026e-20
-2.11893e-19
-3.5224e-20
-2.06982e-19
-3.53342e-20
-2.02426e-19
-3.47437e-20
-1.97944e-19
-3.34273e-20
-1.93358e-19
-3.14804e-20
-1.88466e-19
-2.8911e-20
-1.83062e-19
-2.58474e-20
-1.77076e-19
-2.24567e-20
-1.70388e-19
-1.88298e-20
-1.62968e-19
-1.51959e-20
-1.54873e-19
-1.17046e-20
-1.46117e-19
-8.48444e-21
-1.36855e-19
-5.7524e-21
-1.27234e-19
-3.57207e-21
-1.17395e-19
-2.05549e-21
-1.07574e-19
-1.28265e-21
-9.79203e-20
-1.20804e-21
-8.86279e-20
-1.86793e-21
-7.98882e-20
-3.18887e-21
-7.18031e-20
-5.06429e-21
-6.45006e-20
-7.42169e-21
-5.80258e-20
-1.00754e-20
-5.2368e-20
-1.28905e-20
-4.75143e-20
-1.57315e-20
-4.33647e-20
-1.84267e-20
-3.98041e-20
-2.08805e-20
-3.66887e-20
-2.29761e-20
-3.38208e-20
-2.46244e-20
-3.10156e-20
-2.58046e-20
-2.80711e-20
-2.65024e-20
-2.47836e-20
-2.6781e-20
-2.67838e-20
-2.10146e-20
-2.34215e-18
-1.02551e-18
-2.13221e-18
-7.60501e-19
-1.96426e-18
-6.00663e-19
-1.82516e-18
-4.94853e-19
-1.70692e-18
-4.19923e-19
-1.60425e-18
-3.64e-19
-1.51356e-18
-3.20634e-19
-1.43242e-18
-2.85967e-19
-1.35888e-18
-2.57536e-19
-1.29164e-18
-2.33875e-19
-1.22968e-18
-2.13841e-19
-1.17216e-18
-1.96731e-19
-1.11859e-18
-1.82106e-19
-1.06851e-18
-1.69476e-19
-1.02157e-18
-1.5859e-19
-9.77617e-19
-1.49227e-19
-9.36413e-19
-1.41083e-19
-8.97821e-19
-1.3401e-19
-8.61763e-19
-1.27783e-19
-8.28033e-19
-1.22156e-19
-7.96549e-19
-1.17021e-19
-7.67137e-19
-1.12108e-19
-7.39538e-19
-1.07262e-19
-7.13624e-19
-1.02393e-19
-6.89069e-19
-9.72732e-20
-6.65621e-19
-9.19305e-20
-6.43083e-19
-8.63031e-20
-6.21091e-19
-8.03373e-20
-5.99482e-19
-7.42152e-20
-5.78071e-19
-6.79386e-20
-5.56618e-19
-6.16533e-20
-5.35142e-19
-5.56182e-20
-5.13547e-19
-4.9871e-20
-4.91837e-19
-4.46748e-20
-4.70201e-19
-4.02068e-20
-4.48665e-19
-3.65013e-20
-4.27492e-19
-3.37965e-20
-4.06897e-19
-3.20538e-20
-3.87032e-19
-3.12876e-20
-3.68224e-19
-3.15202e-20
-3.50583e-19
-3.2529e-20
-3.34298e-19
-3.42741e-20
-3.1953e-19
-3.65297e-20
-3.06254e-19
-3.90433e-20
-2.94544e-19
-4.16851e-20
-2.84311e-19
-4.41322e-20
-2.75397e-19
-4.62087e-20
-2.67683e-19
-4.77513e-20
-2.60891e-19
-4.85298e-20
-2.54773e-19
-4.84986e-20
-2.49088e-19
-4.75777e-20
-2.43505e-19
-4.57276e-20
-2.37796e-19
-4.30588e-20
-2.31721e-19
-3.96152e-20
-2.25035e-19
-3.55411e-20
-2.1764e-19
-3.10588e-20
-2.09406e-19
-2.63053e-20
-2.00285e-19
-2.15458e-20
-1.90346e-19
-1.69972e-20
-1.79616e-19
-1.28225e-20
-1.6827e-19
-9.27971e-21
-1.56493e-19
-6.47745e-21
-1.44456e-19
-4.5328e-21
-1.32435e-19
-3.54988e-21
-1.20626e-19
-3.48552e-21
-1.09253e-19
-4.35741e-21
-9.85504e-20
-6.08767e-21
-8.86458e-20
-8.5305e-21
-7.96856e-20
-1.15768e-20
-7.17305e-20
-1.5008e-20
-6.47673e-20
-1.86354e-20
-5.87765e-20
-2.22888e-20
-5.36427e-20
-2.57565e-20
-4.9222e-20
-2.89016e-20
-4.53403e-20
-3.15861e-20
-4.17613e-20
-3.36979e-20
-3.82578e-20
-3.52086e-20
-3.45894e-20
-3.61138e-20
-3.05136e-20
-3.64921e-20
-3.65245e-20
-2.58708e-20
-2.84225e-18
-1.32736e-18
-2.60019e-18
-1.00418e-18
-2.40185e-18
-8.00939e-19
-2.23541e-18
-6.63352e-19
-2.09281e-18
-5.64634e-19
-1.96836e-18
-4.9041e-19
-1.85807e-18
-4.32578e-19
-1.75914e-18
-3.86233e-19
-1.66934e-18
-3.48177e-19
-1.58712e-18
-3.16439e-19
-1.5113e-18
-2.89583e-19
-1.44087e-18
-2.66629e-19
-1.37523e-18
-2.46951e-19
-1.31384e-18
-2.29943e-19
-1.25629e-18
-2.15225e-19
-1.20236e-18
-2.02496e-19
-1.15179e-18
-1.9138e-19
-1.10441e-18
-1.81638e-19
-1.06011e-18
-1.73012e-19
-1.01866e-18
-1.65192e-19
-9.79933e-19
-1.58002e-19
-9.43732e-19
-1.51155e-19
-9.09749e-19
-1.44435e-19
-8.77805e-19
-1.37727e-19
-8.47538e-19
-1.30796e-19
-8.18624e-19
-1.23622e-19
-7.90823e-19
-1.16171e-19
-7.63723e-19
-1.08382e-19
-7.37094e-19
-1.0043e-19
-7.10732e-19
-9.23767e-20
-6.84358e-19
-8.43628e-20
-6.57962e-19
-7.66782e-20
-6.31461e-19
-6.94207e-20
-6.04846e-19
-6.28424e-20
-5.78326e-19
-5.71746e-20
-5.51968e-19
-5.24763e-20
-5.2605e-19
-4.89681e-20
-5.00846e-19
-4.66536e-20
-4.76545e-19
-4.55148e-20
-4.53509e-19
-4.55622e-20
-4.31905e-19
-4.65674e-20
-4.11935e-19
-4.8425e-20
-3.93793e-19
-5.09007e-20
-3.77468e-19
-5.36863e-20
-3.63021e-19
-5.65944e-20
-3.50364e-19
-5.92868e-20
-3.39306e-19
-6.15193e-20
-3.29689e-19
-6.31039e-20
-3.21201e-19
-6.37922e-20
-3.13529e-19
-6.34989e-20
-3.06385e-19
-6.21556e-20
-2.99384e-19
-5.97192e-20
-2.92233e-19
-5.63009e-20
-2.84655e-19
-5.19862e-20
-2.7636e-19
-4.6934e-20
-2.67214e-19
-4.1405e-20
-2.57074e-19
-3.55897e-20
-2.45878e-19
-2.97753e-20
-2.337e-19
-2.42362e-20
-2.20587e-19
-1.91751e-20
-2.06734e-19
-1.48713e-20
-1.92368e-19
-1.148e-20
-1.77699e-19
-9.12268e-21
-1.63042e-19
-7.91525e-21
-1.48649e-19
-7.82846e-21
-1.34781e-19
-8.85524e-21
-1.21715e-19
-1.0913e-20
-1.09615e-19
-1.38283e-20
-9.86434e-20
-1.74512e-20
-8.88799e-20
-2.15418e-20
-8.0311e-20
-2.58657e-20
-7.29062e-20
-3.02179e-20
-6.65352e-20
-3.43592e-20
-6.10206e-20
-3.81129e-20
-5.61521e-20
-4.13243e-20
-5.16517e-20
-4.38663e-20
-4.72438e-20
-4.57016e-20
-4.26451e-20
-4.68381e-20
-3.75729e-20
-4.73673e-20
-4.74909e-20
-3.18461e-20
-3.42286e-18
-1.64285e-18
-3.15322e-18
-1.27555e-18
-2.92457e-18
-1.03168e-18
-2.72885e-18
-8.61279e-19
-2.55907e-18
-7.36644e-19
-2.40973e-18
-6.41854e-19
-2.27666e-18
-5.6744e-19
-2.15682e-18
-5.07506e-19
-2.04776e-18
-4.58161e-19
-1.94769e-18
-4.16906e-19
-1.85525e-18
-3.81959e-19
-1.76932e-18
-3.52041e-19
-1.68913e-18
-3.26304e-19
-1.61409e-18
-3.04021e-19
-1.54371e-18
-2.84651e-19
-1.47769e-18
-2.67783e-19
-1.41577e-18
-2.52978e-19
-1.3577e-18
-2.39899e-19
-1.30334e-18
-2.28233e-19
-1.25246e-18
-2.17619e-19
-1.20486e-18
-2.07808e-19
-1.16032e-18
-1.985e-19
-1.11848e-18
-1.89428e-19
-1.0791e-18
-1.80439e-19
-1.04178e-18
-1.71312e-19
-1.00612e-18
-1.61978e-19
-9.71807e-19
-1.52417e-19
-9.38403e-19
-1.4258e-19
-9.05595e-19
-1.32617e-19
-8.73147e-19
-1.22644e-19
-8.40754e-19
-1.12802e-19
-8.08356e-19
-1.03382e-19
-7.75889e-19
-9.45438e-20
-7.43337e-19
-8.65238e-20
-7.10915e-19
-7.95765e-20
-6.78745e-19
-7.3797e-20
-6.47118e-19
-6.93698e-20
-6.16365e-19
-6.6332e-20
-5.86726e-19
-6.46441e-20
-5.58592e-19
-6.42866e-20
-5.32195e-19
-6.50432e-20
-5.07754e-19
-6.67441e-20
-4.85492e-19
-6.91448e-20
-4.65422e-19
-7.19063e-20
-4.47584e-19
-7.47801e-20
-4.31892e-19
-7.74265e-20
-4.18123e-19
-7.95511e-20
-4.06072e-19
-8.09367e-20
-3.95388e-19
-8.13356e-20
-3.85695e-19
-8.06263e-20
-3.7664e-19
-7.87485e-20
-3.67788e-19
-7.56668e-20
-3.58772e-19
-7.14837e-20
-3.49268e-19
-6.63224e-20
-3.38942e-19
-6.03589e-20
-3.27614e-19
-5.3873e-20
-3.1513e-19
-4.71064e-20
-3.01411e-19
-4.03596e-20
-2.8653e-19
-3.3946e-20
-2.70565e-19
-2.81086e-20
-2.53725e-19
-2.31318e-20
-2.36283e-19
-1.92089e-20
-2.18494e-19
-1.6468e-20
-2.00715e-19
-1.50245e-20
-1.83258e-19
-1.48682e-20
-1.66428e-19
-1.59684e-20
-1.50544e-19
-1.82343e-20
-1.35814e-19
-2.14782e-20
-1.22416e-19
-2.5512e-20
-1.10451e-19
-3.00834e-20
-9.99077e-20
-3.49264e-20
-9.0741e-20
-3.98046e-20
-8.28055e-20
-4.44632e-20
-7.58876e-20
-4.86944e-20
-6.97352e-20
-5.23308e-20
-6.40272e-20
-5.52398e-20
-5.84348e-20
-5.73768e-20
-5.26293e-20
-5.87612e-20
-4.62885e-20
-5.94939e-20
-5.97816e-20
-3.92065e-20
-4.08243e-18
-1.95537e-18
-3.79473e-18
-1.56511e-18
-3.53956e-18
-1.28905e-18
-3.31501e-18
-1.08817e-18
-3.11669e-18
-9.37339e-19
-2.94013e-18
-8.20657e-19
-2.78149e-18
-7.27997e-19
-2.63775e-18
-6.5278e-19
-2.50637e-18
-5.90555e-19
-2.38543e-18
-5.38318e-19
-2.27343e-18
-4.93936e-19
-2.16913e-18
-4.55843e-19
-2.07165e-18
-4.22947e-19
-1.9803e-18
-3.94368e-19
-1.89454e-18
-3.694e-19
-1.81401e-18
-3.47503e-19
-1.73838e-18
-3.28167e-19
-1.66739e-18
-3.10957e-19
-1.60085e-18
-2.95488e-19
-1.53849e-18
-2.81358e-19
-1.48007e-18
-2.68252e-19
-1.42532e-18
-2.55849e-19
-1.37384e-18
-2.4385e-19
-1.3253e-18
-2.32063e-19
-1.27928e-18
-2.20284e-19
-1.23529e-18
-2.08409e-19
-1.19295e-18
-1.96414e-19
-1.15178e-18
-1.84277e-19
-1.11138e-18
-1.72116e-19
-1.07148e-18
-1.60078e-19
-1.03175e-18
-1.48313e-19
-9.92066e-19
-1.37086e-19
-9.52387e-19
-1.26606e-19
-9.12694e-19
-1.17092e-19
-8.73196e-19
-1.08789e-19
-8.34074e-19
-1.01826e-19
-7.95633e-19
-9.63442e-20
-7.58255e-19
-9.23948e-20
-7.22241e-19
-8.9927e-20
-6.88003e-19
-8.88836e-20
-6.55841e-19
-8.9064e-20
-6.26001e-19
-9.02513e-20
-5.98721e-19
-9.21863e-20
-5.74051e-19
-9.45237e-20
-5.52008e-19
-9.6966e-20
-5.32501e-19
-9.91786e-20
-5.15285e-19
-1.00843e-19
-5.00093e-19
-1.01716e-19
-4.86542e-19
-1.01564e-19
-4.74188e-19
-1.00243e-19
-4.62609e-19
-9.76953e-20
-4.51315e-19
-9.39008e-20
-4.39864e-19
-8.89521e-20
-4.27875e-19
-8.29974e-20
-4.14974e-19
-7.62299e-20
-4.00926e-19
-6.89318e-20
-3.85564e-19
-6.13813e-20
-3.68792e-19
-5.38861e-20
-3.50678e-19
-4.67754e-20
-3.31331e-19
-4.03233e-20
-3.10976e-19
-3.48076e-20
-2.89925e-19
-3.0442e-20
-2.68489e-19
-2.73626e-20
-2.47062e-19
-2.56751e-20
-2.26019e-19
-2.53854e-20
-2.05717e-19
-2.64462e-20
-1.86511e-19
-2.87558e-20
-1.68659e-19
-3.21237e-20
-1.52357e-19
-3.6336e-20
-1.37723e-19
-4.11353e-20
-1.24755e-19
-4.62422e-20
-1.1339e-19
-5.1399e-20
-1.03467e-19
-5.63462e-20
-9.47362e-20
-6.08606e-20
-8.69005e-20
-6.47679e-20
-7.95959e-20
-6.79398e-20
-7.24407e-20
-7.03284e-20
-6.50593e-20
-7.19616e-20
-5.7093e-20
-7.29459e-20
-7.34806e-20
-4.8307e-20
-4.81403e-18
-2.24871e-18
-4.52191e-18
-1.85918e-18
-4.24863e-18
-1.56463e-18
-3.99939e-18
-1.3399e-18
-3.77378e-18
-1.16545e-18
-3.56946e-18
-1.02734e-18
-3.38364e-18
-9.15869e-19
-3.21372e-18
-8.24337e-19
-3.05741e-18
-7.48e-19
-2.91278e-18
-6.83507e-19
-2.77831e-18
-6.28437e-19
-2.65272e-18
-5.8098e-19
-2.53504e-18
-5.39795e-19
-2.42455e-18
-5.0383e-19
-2.32063e-18
-4.72234e-19
-2.22287e-18
-4.44327e-19
-2.13091e-18
-4.19509e-19
-2.04446e-18
-3.97254e-19
-1.96326e-18
-3.77105e-19
-1.88704e-18
-3.58625e-19
-1.81549e-18
-3.41437e-19
-1.7483e-18
-3.25201e-19
-1.68504e-18
-3.09605e-19
-1.62529e-18
-2.94425e-19
-1.56857e-18
-2.79469e-19
-1.51434e-18
-2.64615e-19
-1.46214e-18
-2.49831e-19
-1.41144e-18
-2.35114e-19
-1.36177e-18
-2.20556e-19
-1.31279e-18
-2.06305e-19
-1.26417e-18
-1.9252e-19
-1.21572e-18
-1.79429e-19
-1.16739e-18
-1.6725e-19
-1.11918e-18
-1.56187e-19
-1.07128e-18
-1.46453e-19
-1.02392e-18
-1.38182e-19
-9.77424e-19
-1.3148e-19
-9.32211e-19
-1.26387e-19
-8.88646e-19
-1.22845e-19
-8.47157e-19
-1.20762e-19
-8.08108e-19
-1.19948e-19
-7.71776e-19
-1.20164e-19
-7.38408e-19
-1.21139e-19
-7.08092e-19
-1.22539e-19
-6.80828e-19
-1.24044e-19
-6.56513e-19
-1.25331e-19
-6.34886e-19
-1.26085e-19
-6.15624e-19
-1.26053e-19
-5.98306e-19
-1.25021e-19
-5.82429e-19
-1.22845e-19
-5.67494e-19
-1.19466e-19
-5.52962e-19
-1.14881e-19
-5.38316e-19
-1.09178e-19
-5.23114e-19
-1.02513e-19
-5.06942e-19
-9.50894e-20
-4.89509e-19
-8.71794e-20
-4.70626e-19
-7.90731e-20
-4.50185e-19
-7.1076e-20
-4.28242e-19
-6.35093e-20
-4.04931e-19
-5.66572e-20
-3.80495e-19
-5.07819e-20
-3.55277e-19
-4.60958e-20
-3.29643e-19
-4.27377e-20
-3.04021e-19
-4.07992e-20
-2.78849e-19
-4.02929e-20
-2.54531e-19
-4.1164e-20
-2.31461e-19
-4.3302e-20
-2.09941e-19
-4.65233e-20
-1.9019e-19
-5.06066e-20
-1.72339e-19
-5.52995e-20
-1.564e-19
-6.03286e-20
-1.42294e-19
-6.54321e-20
-1.29841e-19
-7.03589e-20
-1.18762e-19
-7.48889e-20
-1.08715e-19
-7.88521e-20
-9.92962e-20
-8.21316e-20
-9.0076e-20
-8.46836e-20
-8.06353e-20
-8.65407e-20
-7.05828e-20
-8.78094e-20
-8.86735e-20
-5.96523e-20
-5.60591e-18
-2.51061e-18
-5.32455e-18
-2.14261e-18
-5.04563e-18
-1.84601e-18
-4.78021e-18
-1.60798e-18
-4.53239e-18
-1.41596e-18
-4.3028e-18
-1.2595e-18
-4.09045e-18
-1.13049e-18
-3.89377e-18
-1.02285e-18
-3.71109e-18
-9.31993e-19
-3.54078e-18
-8.54517e-19
-3.3815e-18
-7.87858e-19
-3.23204e-18
-7.30043e-19
-3.09147e-18
-6.79544e-19
-2.95903e-18
-6.35158e-19
-2.83412e-18
-5.95907e-19
-2.71631e-18
-5.6098e-19
-2.60521e-18
-5.29682e-19
-2.5005e-18
-5.01411e-19
-2.40191e-18
-4.75644e-19
-2.30914e-18
-4.51907e-19
-2.22183e-18
-4.29784e-19
-2.13963e-18
-4.08914e-19
-2.06209e-18
-3.88985e-19
-1.9887e-18
-3.69755e-19
-1.91896e-18
-3.51038e-19
-1.85225e-18
-3.32708e-19
-1.78804e-18
-3.14723e-19
-1.72574e-18
-2.97088e-19
-1.66484e-18
-2.79875e-19
-1.60493e-18
-2.6321e-19
-1.54563e-18
-2.47246e-19
-1.48674e-18
-2.3217e-19
-1.42816e-18
-2.18176e-19
-1.3699e-18
-2.05442e-19
-1.31213e-18
-1.94134e-19
-1.25511e-18
-1.84368e-19
-1.19919e-18
-1.76214e-19
-1.14481e-18
-1.69683e-19
-1.09237e-18
-1.6471e-19
-1.04234e-18
-1.61178e-19
-9.9511e-19
-1.589e-19
-9.51003e-19
-1.57636e-19
-9.10272e-19
-1.57113e-19
-8.73034e-19
-1.57022e-19
-8.39286e-19
-1.5705e-19
-8.08911e-19
-1.56891e-19
-7.81637e-19
-1.56257e-19
-7.57097e-19
-1.54907e-19
-7.34832e-19
-1.5265e-19
-7.14293e-19
-1.49356e-19
-6.94913e-19
-1.44972e-19
-6.76099e-19
-1.39509e-19
-6.57274e-19
-1.33049e-19
-6.37932e-19
-1.25747e-19
-6.1762e-19
-1.17802e-19
-5.95996e-19
-1.09467e-19
-5.72837e-19
-1.0102e-19
-5.48025e-19
-9.27483e-20
-5.21598e-19
-8.49485e-20
-4.93703e-19
-7.78893e-20
-4.64598e-19
-7.18091e-20
-4.34645e-19
-6.69017e-20
-4.04254e-19
-6.32979e-20
-3.73889e-19
-6.10742e-20
-3.44033e-19
-6.02408e-20
-3.15138e-19
-6.07421e-20
-2.87627e-19
-6.24668e-20
-2.61842e-19
-6.5245e-20
-2.38027e-19
-6.8867e-20
-2.16327e-19
-7.3097e-20
-1.96764e-19
-7.76834e-20
-1.79252e-19
-8.23805e-20
-1.63593e-19
-8.69584e-20
-1.49485e-19
-9.12163e-20
-1.36552e-19
-9.50003e-20
-1.24355e-19
-9.82103e-20
-1.12431e-19
-1.00811e-19
-1.00323e-19
-1.02838e-19
-8.76128e-20
-1.04391e-19
-7.40029e-20
-1.05634e-19
-9.17455e-21
-4.00804e-21
-7.69123e-21
-3.29544e-21
-6.63554e-21
-2.76815e-21
-5.79524e-21
-2.31489e-21
-5.01202e-21
-1.89561e-21
-4.16147e-21
-1.49833e-21
-3.18524e-21
-1.13215e-21
-2.09178e-21
-8.06619e-22
-9.67825e-22
-5.12463e-22
-1.86385e-22
-1.12973e-20
-1.0185e-20
-9.47547e-21
-8.40185e-21
-8.17634e-21
-6.88974e-21
-7.13739e-21
-5.46189e-21
-6.16109e-21
-4.11834e-21
-5.09356e-21
-2.91851e-21
-3.8611e-21
-1.9419e-21
-2.45947e-21
-1.23234e-21
-9.08585e-22
-7.89488e-22
-5.96932e-22
-1.39178e-20
-1.73459e-20
-1.16727e-20
-1.42261e-20
-1.0046e-20
-1.14868e-20
-8.71331e-21
-8.9368e-21
-7.43468e-21
-6.64701e-21
-6.04147e-21
-4.73226e-21
-4.47358e-21
-3.27558e-21
-2.76773e-21
-2.27671e-21
-1.03594e-21
-1.66351e-21
-1.32307e-21
-1.71493e-20
-2.55263e-20
-1.43608e-20
-2.08019e-20
-1.22768e-20
-1.66429e-20
-1.05115e-20
-1.2901e-20
-8.79629e-21
-9.68977e-21
-6.97676e-21
-7.11802e-21
-5.03528e-21
-5.20994e-21
-3.06105e-21
-3.88674e-21
-1.19602e-21
-3.00723e-21
-2.42061e-21
-2.11246e-20
-3.48006e-20
-1.76219e-20
-2.82369e-20
-1.4897e-20
-2.25283e-20
-1.25189e-20
-1.75657e-20
-1.02189e-20
-1.34487e-20
-7.88608e-21
-1.02226e-20
-5.55571e-21
-7.82007e-21
-3.34528e-21
-6.08501e-21
-1.37846e-21
-4.83469e-21
-3.91098e-21
-2.60016e-20
-4.5286e-20
-2.15521e-20
-3.66914e-20
-1.79486e-20
-2.93394e-20
-1.47483e-20
-2.31241e-20
-1.17185e-20
-1.80738e-20
-8.80787e-21
-1.41296e-20
-6.0858e-21
-1.11288e-20
-3.6568e-21
-8.86071e-21
-1.59399e-21
-7.12827e-21
-5.77875e-21
-3.19806e-20
-5.71104e-20
-2.62869e-20
-4.63267e-20
-2.15245e-20
-3.72407e-20
-1.72859e-20
-2.97025e-20
-1.34006e-20
-2.36239e-20
-9.86058e-21
-1.88298e-20
-6.72797e-21
-1.50841e-20
-4.05621e-21
-1.215e-20
-1.854e-21
-9.83022e-21
-7.97687e-21
-3.93421e-20
-7.03848e-20
-3.20498e-20
-5.72657e-20
-2.58294e-20
-4.63271e-20
-2.03467e-20
-3.73308e-20
-1.54857e-20
-3.00567e-20
-1.12399e-20
-2.42347e-20
-7.62228e-21
-1.95853e-20
-4.61661e-21
-1.58614e-20
-2.17098e-21
-1.28653e-20
-1.04446e-20
-4.85165e-20
-8.52036e-20
-3.92309e-20
-6.95803e-20
-3.1246e-20
-5.66153e-20
-2.43029e-20
-4.59584e-20
-1.83021e-20
-3.72773e-20
-1.31964e-20
-3.02391e-20
-8.92927e-21
-2.45396e-20
-5.41807e-21
-1.99214e-20
-2.56266e-21
-1.61758e-20
-1.31357e-20
-6.01956e-20
-1.01798e-19
-4.84881e-20
-8.34234e-20
-3.83963e-20
-6.8179e-20
-2.97017e-20
-5.56042e-20
-2.22834e-20
-4.52849e-20
-1.60362e-20
-3.68458e-20
-1.084e-20
-2.99594e-20
-6.56117e-21
-2.43482e-20
-3.06325e-21
-1.9781e-20
-1.60665e-20
-2.95714e-15
4.52695e-11
-2.01435e-14
1.06944e-10
-7.25029e-14
1.10711e-10
-1.07294e-13
2.56027e-12
-1.27305e-13
-1.91323e-10
-6.8862e-17
-7.41113e-11
-5.9016e-18
-4.96999e-14
-5.90158e-18
-2.37396e-18
-5.84858e-18
-2.68029e-18
-2.94609e-18
-5.7143e-18
-4.8183e-16
4.52703e-11
-4.70304e-15
1.06948e-10
-1.64254e-14
1.10721e-10
-2.89933e-14
2.57259e-12
-3.32464e-14
-1.91319e-10
-6.39586e-17
-7.41442e-11
-5.45573e-18
-4.97159e-14
-5.45569e-18
-2.37399e-18
-5.41926e-18
-2.71717e-18
-3.04193e-18
-5.32451e-18
-1.3995e-16
4.52705e-11
-1.05354e-15
1.0695e-10
-3.6418e-15
1.10724e-10
-7.85934e-15
2.57682e-12
-9.16089e-15
-1.91318e-10
-1.30227e-17
-7.41537e-11
-5.07755e-18
-4.97224e-14
-5.07755e-18
-2.374e-18
-5.05112e-18
-2.74408e-18
-3.11292e-18
-4.9813e-18
-1.39405e-16
4.52705e-11
-4.50244e-16
1.0695e-10
-9.52232e-16
1.10725e-10
-1.93493e-15
2.57782e-12
-8.40234e-16
-1.91319e-10
4.52435e-17
-7.41553e-11
-4.74865e-18
-4.97255e-14
-4.74888e-18
-2.37403e-18
-4.72893e-18
-2.76454e-18
-3.1674e-18
-4.67571e-18
3.70943e-17
4.52704e-11
-4.32872e-17
1.0695e-10
-1.81336e-16
1.10725e-10
-7.64961e-16
2.57835e-12
-9.36175e-17
-1.91319e-10
-5.11513e-17
-7.41546e-11
-4.45777e-18
-4.97266e-14
-4.45776e-18
-2.37404e-18
-4.44227e-18
-2.78057e-18
-3.21038e-18
-4.40063e-18
-9.63397e-18
4.52704e-11
-1.9854e-16
1.0695e-10
-4.89994e-16
1.10725e-10
-9.53913e-16
2.57829e-12
-5.85123e-16
-1.9132e-10
5.09095e-18
-7.41555e-11
-4.19597e-18
-4.97278e-14
-4.19612e-18
-2.37406e-18
-4.18382e-18
-2.79346e-18
-3.24509e-18
-4.15058e-18
-3.14429e-17
4.52705e-11
-6.87096e-17
1.0695e-10
2.29877e-18
1.10725e-10
-1.28449e-16
2.57923e-12
-1.08894e-15
-1.91318e-10
-6.65091e-17
-7.41558e-11
-3.95816e-18
-4.97279e-14
-3.95813e-18
-2.37404e-18
-3.94822e-18
-2.80401e-18
-3.27363e-18
-3.92127e-18
7.58037e-17
4.52704e-11
1.77156e-16
1.0695e-10
4.17957e-16
1.10725e-10
2.82614e-16
2.57904e-12
-6.04123e-16
-1.91318e-10
1.54511e-17
-7.4157e-11
-3.73937e-18
-4.9728e-14
-3.73959e-18
-2.37403e-18
-3.73149e-18
-2.8128e-18
-3.29748e-18
-3.70938e-18
5.28603e-17
4.52704e-11
6.55981e-17
1.0695e-10
3.43701e-16
1.10725e-10
6.19847e-17
2.57966e-12
-1.31181e-16
-1.91317e-10
1.89327e-17
-7.41575e-11
-3.537e-18
-4.97278e-14
-3.53724e-18
-2.37401e-18
-3.53057e-18
-2.82023e-18
-3.31768e-18
-3.51225e-18
1.33034e-16
4.52703e-11
2.32204e-16
1.0695e-10
8.62936e-16
1.10724e-10
5.70024e-16
2.5795e-12
1.15938e-15
-1.91318e-10
-1.51555e-17
-7.41564e-11
-3.3485e-18
-4.97279e-14
-3.3486e-18
-2.37402e-18
-3.34305e-18
-2.8266e-18
-3.33499e-18
-3.32779e-18
2.05846e-16
4.527e-11
4.52039e-16
1.0695e-10
1.4092e-15
1.10723e-10
1.22477e-15
2.57939e-12
1.5901e-15
-1.91319e-10
-3.75797e-17
-7.41547e-11
-3.17161e-18
-4.97278e-14
-3.17164e-18
-2.37404e-18
-3.16703e-18
-2.8321e-18
-3.34996e-18
-3.15425e-18
1.23815e-16
4.52699e-11
1.34113e-16
1.0695e-10
5.52531e-16
1.10722e-10
-1.04469e-16
2.58009e-12
1.79777e-16
-1.91319e-10
-2.69506e-17
-7.41545e-11
-3.00469e-18
-4.97277e-14
-3.00478e-18
-2.37403e-18
-3.00094e-18
-2.8369e-18
-3.36303e-18
-2.99025e-18
1.27293e-17
4.52699e-11
-2.74203e-16
1.0695e-10
-4.49434e-16
1.10723e-10
-1.36526e-15
2.58114e-12
-8.54214e-16
-1.91319e-10
-5.0456e-19
-7.41553e-11
-2.84652e-18
-4.97281e-14
-2.84674e-18
-2.37404e-18
-2.84356e-18
-2.84111e-18
-3.37452e-18
-2.8346e-18
6.91376e-17
4.52698e-11
2.93192e-17
1.0695e-10
3.08989e-16
1.10722e-10
-1.88467e-16
2.58172e-12
-6.30331e-16
-1.91318e-10
-1.87299e-17
-7.41557e-11
-2.69619e-18
-4.97279e-14
-2.69644e-18