/*--------------------------------*- C++ -*----------------------------------*\
| =========                 |                                                 |
| \\      /  F ield         | OpenFOAM: The Open Source CFD Toolbox           |
|  \\    /   O peration     | Version:  2406                                  |
|   \\  /    A nd           | Website:  www.openfoam.com                      |
|    \\/     M anipulation  |                                                 |
\*---------------------------------------------------------------------------*/
FoamFile
{
    version     2.0;
    format      ascii;
    arch        "LSB;label=32;scalar=64";
    class       volVectorField;
    location    "60";
    object      U;
}
// * * * * * * * * * * * * * * * * * * * * * * * * * * * * * * * * * * * * * //

dimensions      [0 1 -1 0 0 0 0];

internalField   nonuniform List<vector> 
10000
(
(-1.10406e-06 1.09781e-06 0)
(-4.39854e-06 1.76099e-06 0)
(-8.89249e-06 1.20441e-06 0)
(-1.09353e-05 -1.48529e-07 0)
(-6.40413e-06 -1.68098e-06 0)
(-1.56649e-07 -4.55097e-07 0)
(1.00467e-10 -1.1701e-10 0)
(-3.19674e-13 -5.07016e-15 0)
(-5.81414e-13 -1.09913e-14 0)
(-4.8404e-13 -6.05764e-15 0)
(-1.77447e-06 4.35773e-06 0)
(-7.23308e-06 7.09019e-06 0)
(-1.52025e-05 5.02259e-06 0)
(-1.92197e-05 -4.78359e-07 0)
(-1.13135e-05 -6.57235e-06 0)
(-4.101e-08 -1.81838e-06 0)
(1.73419e-10 -1.36987e-09 0)
(-3.2112e-13 -6.02879e-14 0)
(-5.8186e-13 -3.60656e-14 0)
(-4.82732e-13 -1.94793e-14 0)
(-1.46061e-06 9.06593e-06 0)
(-6.28185e-06 1.53883e-05 0)
(-1.39551e-05 1.13777e-05 0)
(-1.8176e-05 -7.70235e-07 0)
(-1.06278e-05 -1.41723e-05 0)
(1.04113e-07 -3.85174e-06 0)
(1.58747e-10 -3.38392e-09 0)
(-3.12525e-13 -1.47692e-13 0)
(-5.70488e-13 -6.57817e-14 0)
(-4.79003e-13 -3.55089e-14 0)
(-8.35187e-07 1.31687e-05 0)
(-3.86895e-06 2.33942e-05 0)
(-9.17316e-06 1.80256e-05 0)
(-1.23842e-05 -8.31585e-07 0)
(-7.25581e-06 -2.19372e-05 0)
(1.31853e-07 -5.88717e-06 0)
(1.08775e-10 -4.6503e-09 0)
(-2.94231e-13 -1.99285e-13 0)
(-5.46843e-13 -9.60809e-14 0)
(-4.71648e-13 -5.3882e-14 0)
(-3.46811e-07 1.56397e-05 0)
(-1.75431e-06 2.88134e-05 0)
(-4.48664e-06 2.2966e-05 0)
(-6.34818e-06 -6.20464e-07 0)
(-3.89381e-06 -2.75533e-05 0)
(6.7185e-08 -7.42936e-06 0)
(5.99194e-11 -5.13299e-09 0)
(-2.71812e-13 -2.14805e-13 0)
(-5.16123e-13 -1.22686e-13 0)
(-4.5989e-13 -7.38029e-14 0)
(-1.02665e-07 1.67131e-05 0)
(-5.8248e-07 3.14933e-05 0)
(-1.63839e-06 2.5717e-05 0)
(-2.4965e-06 -2.66846e-07 0)
(-1.76423e-06 -3.0436e-05 0)
(-2.48758e-09 -8.44545e-06 0)
(2.811e-11 -5.24437e-09 0)
(-2.49981e-13 -2.14078e-13 0)
(-4.83312e-13 -1.43543e-13 0)
(-4.43671e-13 -9.40606e-14 0)
(-2.1504e-08 1.70387e-05 0)
(-1.439e-07 3.24679e-05 0)
(-4.69594e-07 2.69029e-05 0)
(-8.12973e-07 8.0988e-08 0)
(-7.5755e-07 -3.14165e-05 0)
(-2.95722e-08 -9.11899e-06 0)
(1.23899e-11 -5.28404e-09 0)
(-2.30274e-13 -2.1104e-13 0)
(-4.50663e-13 -1.58994e-13 0)
(-4.23519e-13 -1.1338e-13 0)
(-3.61768e-09 1.71129e-05 0)
(-2.98296e-08 3.27573e-05 0)
(-1.25006e-07 2.73601e-05 0)
(-2.55842e-07 3.32745e-07 0)
(-3.22036e-07 -3.15847e-05 0)
(-2.33328e-08 -9.55566e-06 0)
(5.25489e-12 -5.33184e-09 0)
(-2.12252e-13 -2.09679e-13 0)
(-4.18498e-13 -1.70413e-13 0)
(-4.00219e-13 -1.30784e-13 0)
(-6.63439e-10 1.71322e-05 0)
(-6.4226e-09 3.2849e-05 0)
(-3.69898e-08 2.75496e-05 0)
(-8.24045e-08 4.6419e-07 0)
(-1.20694e-07 -3.15633e-05 0)
(-1.04441e-08 -9.79121e-06 0)
(1.83848e-12 -5.37222e-09 0)
(-1.95185e-13 -2.09484e-13 0)
(-3.86649e-13 -1.79016e-13 0)
(-3.74563e-13 -1.45749e-13 0)
(-7.37311e-11 1.7139e-05 0)
(-1.54514e-09 3.28803e-05 0)
(-1.06929e-08 2.7631e-05 0)
(-2.37704e-08 5.05386e-07 0)
(-3.53986e-08 -3.15351e-05 0)
(-3.18789e-09 -9.88796e-06 0)
(3.4236e-13 -5.39369e-09 0)
(-1.78697e-13 -2.0956e-13 0)
(-3.55085e-13 -1.85563e-13 0)
(-3.47256e-13 -1.58158e-13 0)
(-4.18654e-13 -3.82862e-15 0)
(-3.73916e-13 -2.75527e-15 0)
(-3.40703e-13 -2.14491e-15 0)
(-3.14352e-13 -1.75434e-15 0)
(-2.92547e-13 -1.48253e-15 0)
(-2.73969e-13 -1.28222e-15 0)
(-2.57788e-13 -1.12929e-15 0)
(-2.43457e-13 -1.00733e-15 0)
(-2.30584e-13 -9.08657e-16 0)
(-2.18888e-13 -8.26743e-16 0)
(-2.08168e-13 -7.56603e-16 0)
(-1.98261e-13 -6.97476e-16 0)
(-1.89057e-13 -6.45655e-16 0)
(-1.80474e-13 -5.99674e-16 0)
(-1.72441e-13 -5.60248e-16 0)
(-1.64921e-13 -5.24682e-16 0)
(-1.57877e-13 -4.92929e-16 0)
(-1.51279e-13 -4.65376e-16 0)
(-1.45112e-13 -4.40002e-16 0)
(-1.39348e-13 -4.17729e-16 0)
(-1.33967e-13 -3.97651e-16 0)
(-1.28945e-13 -3.78776e-16 0)
(-1.24247e-13 -3.62528e-16 0)
(-1.19842e-13 -3.46528e-16 0)
(-1.15689e-13 -3.31213e-16 0)
(-1.1174e-13 -3.17273e-16 0)
(-1.0796e-13 -3.02226e-16 0)
(-1.04297e-13 -2.8798e-16 0)
(-1.0071e-13 -2.73799e-16 0)
(-9.71688e-14 -2.58135e-16 0)
(-9.36348e-14 -2.43625e-16 0)
(-9.00933e-14 -2.28421e-16 0)
(-8.65354e-14 -2.12814e-16 0)
(-8.29529e-14 -1.98881e-16 0)
(-7.93652e-14 -1.84317e-16 0)
(-7.57871e-14 -1.71207e-16 0)
(-7.22451e-14 -1.59728e-16 0)
(-6.87806e-14 -1.48787e-16 0)
(-6.54225e-14 -1.40785e-16 0)
(-6.22148e-14 -1.33966e-16 0)
(-5.91923e-14 -1.29078e-16 0)
(-5.6381e-14 -1.26854e-16 0)
(-5.38125e-14 -1.25298e-16 0)
(-5.14956e-14 -1.26042e-16 0)
(-4.9437e-14 -1.27922e-16 0)
(-4.76349e-14 -1.29995e-16 0)
(-4.60669e-14 -1.33372e-16 0)
(-4.47123e-14 -1.36156e-16 0)
(-4.35354e-14 -1.38482e-16 0)
(-4.2492e-14 -1.40527e-16 0)
(-4.15419e-14 -1.4066e-16 0)
(-4.06347e-14 -1.39795e-16 0)
(-3.97243e-14 -1.37532e-16 0)
(-3.87713e-14 -1.33084e-16 0)
(-3.77331e-14 -1.27717e-16 0)
(-3.65828e-14 -1.20551e-16 0)
(-3.52994e-14 -1.11992e-16 0)
(-3.3868e-14 -1.03169e-16 0)
(-3.22921e-14 -9.31574e-17 0)
(-3.05776e-14 -8.32793e-17 0)
(-2.87431e-14 -7.38065e-17 0)
(-2.68193e-14 -6.44755e-17 0)
(-2.48351e-14 -5.68863e-17 0)
(-2.28306e-14 -5.04527e-17 0)
(-2.08446e-14 -4.55056e-17 0)
(-1.89124e-14 -4.27582e-17 0)
(-1.70742e-14 -4.13791e-17 0)
(-1.53592e-14 -4.21859e-17 0)
(-1.3792e-14 -4.50068e-17 0)
(-1.23904e-14 -4.91772e-17 0)
(-1.11575e-14 -5.50552e-17 0)
(-1.00915e-14 -6.17572e-17 0)
(-9.18026e-15 -6.90325e-17 0)
(-8.40182e-15 -7.69139e-17 0)
(-7.72996e-15 -8.46251e-17 0)
(-7.1292e-15 -9.21502e-17 0)
(-6.56046e-15 -9.91571e-17 0)
(-5.98375e-15 -1.05206e-16 0)
(-5.35684e-15 -1.10567e-16 0)
(-4.64385e-15 -1.14739e-16 0)
(-4.18104e-13 -1.23492e-14 0)
(-3.73641e-13 -8.90534e-15 0)
(-3.4054e-13 -6.94276e-15 0)
(-3.14243e-13 -5.68286e-15 0)
(-2.9247e-13 -4.80464e-15 0)
(-2.73912e-13 -4.15552e-15 0)
(-2.57743e-13 -3.65788e-15 0)
(-2.43421e-13 -3.26082e-15 0)
(-2.30555e-13 -2.93697e-15 0)
(-2.18863e-13 -2.66819e-15 0)
(-2.08147e-13 -2.43905e-15 0)
(-1.98243e-13 -2.24477e-15 0)
(-1.89041e-13 -2.07676e-15 0)
(-1.8046e-13 -1.92954e-15 0)
(-1.72429e-13 -1.80387e-15 0)
(-1.6491e-13 -1.69346e-15 0)
(-1.57867e-13 -1.59625e-15 0)
(-1.51271e-13 -1.5129e-15 0)
(-1.45104e-13 -1.43807e-15 0)
(-1.39341e-13 -1.37176e-15 0)
(-1.3396e-13 -1.31223e-15 0)
(-1.2894e-13 -1.25544e-15 0)
(-1.24242e-13 -1.2033e-15 0)
(-1.19837e-13 -1.15099e-15 0)
(-1.15684e-13 -1.09726e-15 0)
(-1.11736e-13 -1.04432e-15 0)
(-1.07955e-13 -9.86755e-16 0)
(-1.04292e-13 -9.27586e-16 0)
(-1.00705e-13 -8.67341e-16 0)
(-9.71639e-14 -8.02475e-16 0)
(-9.363e-14 -7.39186e-16 0)
(-9.00883e-14 -6.7615e-16 0)
(-8.65306e-14 -6.13418e-16 0)
(-8.29483e-14 -5.57379e-16 0)
(-7.93607e-14 -5.04764e-16 0)
(-7.5783e-14 -4.5927e-16 0)
(-7.22415e-14 -4.23729e-16 0)
(-6.87775e-14 -3.95097e-16 0)
(-6.54201e-14 -3.78281e-16 0)
(-6.22129e-14 -3.70473e-16 0)
(-5.91911e-14 -3.70885e-16 0)
(-5.63804e-14 -3.81412e-16 0)
(-5.38124e-14 -3.96368e-16 0)
(-5.1496e-14 -4.17069e-16 0)
(-4.94377e-14 -4.40992e-16 0)
(-4.76358e-14 -4.63575e-16 0)
(-4.60679e-14 -4.86148e-16 0)
(-4.47131e-14 -5.0408e-16 0)
(-4.35361e-14 -5.15721e-16 0)
(-4.24923e-14 -5.21563e-16 0)
(-4.15418e-14 -5.17767e-16 0)
(-4.06342e-14 -5.05701e-16 0)
(-3.97232e-14 -4.85702e-16 0)
(-3.87697e-14 -4.56225e-16 0)
(-3.77311e-14 -4.20745e-16 0)
(-3.65802e-14 -3.79271e-16 0)
(-3.52966e-14 -3.33085e-16 0)
(-3.3865e-14 -2.86436e-16 0)
(-3.22888e-14 -2.38915e-16 0)
(-3.05745e-14 -1.9388e-16 0)
(-2.874e-14 -1.53963e-16 0)
(-2.68165e-14 -1.19013e-16 0)
(-2.48328e-14 -9.29392e-17 0)
(-2.28288e-14 -7.54821e-17 0)
(-2.08433e-14 -6.65991e-17 0)
(-1.89118e-14 -6.80835e-17 0)
(-1.70741e-14 -7.77079e-17 0)
(-1.53598e-14 -9.59227e-17 0)
(-1.37932e-14 -1.21939e-16 0)
(-1.23921e-14 -1.52762e-16 0)
(-1.11596e-14 -1.87916e-16 0)
(-1.00938e-14 -2.24676e-16 0)
(-9.18274e-15 -2.60979e-16 0)
(-8.40437e-15 -2.96163e-16 0)
(-7.73245e-15 -3.27764e-16 0)
(-7.13158e-15 -3.54944e-16 0)
(-6.5626e-15 -3.76998e-16 0)
(-5.98562e-15 -3.9294e-16 0)
(-5.3584e-15 -4.0381e-16 0)
(-4.64487e-15 -4.10123e-16 0)
(-4.16615e-13 -2.26964e-14 0)
(-3.7289e-13 -1.64312e-14 0)
(-3.40092e-13 -1.2837e-14 0)
(-3.13946e-13 -1.05179e-14 0)
(-2.92257e-13 -8.89736e-15 0)
(-2.73752e-13 -7.69704e-15 0)
(-2.57618e-13 -6.77346e-15 0)
(-2.4332e-13 -6.03607e-15 0)
(-2.30472e-13 -5.43162e-15 0)
(-2.18794e-13 -4.93006e-15 0)
(-2.08087e-13 -4.504e-15 0)
(-1.98192e-13 -4.14106e-15 0)
(-1.88997e-13 -3.83015e-15 0)
(-1.80422e-13 -3.5603e-15 0)
(-1.72397e-13 -3.33007e-15 0)
(-1.64882e-13 -3.13151e-15 0)
(-1.57843e-13 -2.95851e-15 0)
(-1.5125e-13 -2.81095e-15 0)
(-1.45085e-13 -2.68096e-15 0)
(-1.39325e-13 -2.56467e-15 0)
(-1.33945e-13 -2.46028e-15 0)
(-1.28925e-13 -2.35977e-15 0)
(-1.24227e-13 -2.26281e-15 0)
(-1.19822e-13 -2.16452e-15 0)
(-1.15669e-13 -2.05953e-15 0)
(-1.11719e-13 -1.95128e-15 0)
(-1.07938e-13 -1.8339e-15 0)
(-1.04274e-13 -1.70862e-15 0)
(-1.00686e-13 -1.57983e-15 0)
(-9.71442e-14 -1.44357e-15 0)
(-9.36105e-14 -1.30749e-15 0)
(-9.00692e-14 -1.17519e-15 0)
(-8.65126e-14 -1.04599e-15 0)
(-8.29321e-14 -9.30271e-16 0)
(-7.93465e-14 -8.27899e-16 0)
(-7.57717e-14 -7.41587e-16 0)
(-7.22331e-14 -6.78801e-16 0)
(-6.87722e-14 -6.35277e-16 0)
(-6.54181e-14 -6.15673e-16 0)
(-6.22137e-14 -6.18693e-16 0)
(-5.91947e-14 -6.39114e-16 0)
(-5.63863e-14 -6.79197e-16 0)
(-5.38198e-14 -7.30231e-16 0)
(-5.15045e-14 -7.89319e-16 0)
(-4.94462e-14 -8.5339e-16 0)
(-4.76438e-14 -9.12782e-16 0)
(-4.60748e-14 -9.66594e-16 0)
(-4.4718e-14 -1.00868e-15 0)
(-4.35387e-14 -1.03356e-15 0)
(-4.24923e-14 -1.04174e-15 0)
(-4.15388e-14 -1.02849e-15 0)
(-4.06283e-14 -9.94147e-16 0)
(-3.97146e-14 -9.41268e-16 0)
(-3.87585e-14 -8.68647e-16 0)
(-3.77181e-14 -7.81478e-16 0)
(-3.65657e-14 -6.83452e-16 0)
(-3.52814e-14 -5.76995e-16 0)
(-3.38498e-14 -4.70158e-16 0)
(-3.22742e-14 -3.65706e-16 0)
(-3.05613e-14 -2.68437e-16 0)
(-2.87287e-14 -1.8508e-16 0)
(-2.68076e-14 -1.16517e-16 0)
(-2.48269e-14 -6.78825e-17 0)
(-2.28258e-14 -4.08142e-17 0)
(-2.08434e-14 -3.39797e-17 0)
(-1.89148e-14 -4.96695e-17 0)
(-1.70798e-14 -8.46806e-17 0)
(-1.5368e-14 -1.3697e-16 0)
(-1.38032e-14 -2.04711e-16 0)
(-1.24033e-14 -2.81688e-16 0)
(-1.11715e-14 -3.64839e-16 0)
(-1.01057e-14 -4.49517e-16 0)
(-9.19409e-15 -5.30536e-16 0)
(-8.41468e-15 -6.0561e-16 0)
(-7.74123e-15 -6.70522e-16 0)
(-7.13857e-15 -7.22775e-16 0)
(-6.56762e-15 -7.61551e-16 0)
(-5.98872e-15 -7.8576e-16 0)
(-5.35994e-15 -7.97451e-16 0)
(-4.64556e-15 -8.00221e-16 0)
(-4.1364e-13 -3.50258e-14 0)
(-3.71368e-13 -2.55322e-14 0)
(-3.39176e-13 -2.00093e-14 0)
(-3.13334e-13 -1.64187e-14 0)
(-2.91819e-13 -1.39007e-14 0)
(-2.73422e-13 -1.2032e-14 0)
(-2.5736e-13 -1.05898e-14 0)
(-2.43112e-13 -9.43791e-15 0)
(-2.303e-13 -8.493e-15 0)
(-2.18649e-13 -7.70849e-15 0)
(-2.07965e-13 -7.04323e-15 0)
(-1.98087e-13 -6.47542e-15 0)
(-1.88907e-13 -5.99044e-15 0)
(-1.80344e-13 -5.5711e-15 0)
(-1.7233e-13 -5.21201e-15 0)
(-1.64824e-13 -4.90374e-15 0)
(-1.57793e-13 -4.63598e-15 0)
(-1.51207e-13 -4.40642e-15 0)
(-1.45047e-13 -4.20503e-15 0)
(-1.3929e-13 -4.02389e-15 0)
(-1.33913e-13 -3.86038e-15 0)
(-1.28894e-13 -3.70306e-15 0)
(-1.24197e-13 -3.54858e-15 0)
(-1.1979e-13 -3.39216e-15 0)
(-1.15635e-13 -3.22486e-15 0)
(-1.11683e-13 -3.05019e-15 0)
(-1.07899e-13 -2.86275e-15 0)
(-1.04234e-13 -2.66182e-15 0)
(-1.00644e-13 -2.45504e-15 0)
(-9.71009e-14 -2.23914e-15 0)
(-9.35679e-14 -2.02243e-15 0)
(-9.00278e-14 -1.81342e-15 0)
(-8.6474e-14 -1.6116e-15 0)
(-8.28979e-14 -1.43013e-15 0)
(-7.93172e-14 -1.27275e-15 0)
(-7.57487e-14 -1.14135e-15 0)
(-7.2217e-14 -1.04697e-15 0)
(-6.87631e-14 -9.85282e-16 0)
(-6.54164e-14 -9.59835e-16 0)
(-6.22185e-14 -9.70772e-16 0)
(-5.92053e-14 -1.0091e-15 0)
(-5.64016e-14 -1.07625e-15 0)
(-5.3838e-14 -1.16135e-15 0)
(-5.15246e-14 -1.25688e-15 0)
(-4.94663e-14 -1.35872e-15 0)
(-4.7662e-14 -1.45295e-15 0)
(-4.60901e-14 -1.53556e-15 0)
(-4.47286e-14 -1.59916e-15 0)
(-4.35437e-14 -1.63476e-15 0)
(-4.24911e-14 -1.64221e-15 0)
(-4.15307e-14 -1.61648e-15 0)
(-4.06139e-14 -1.55678e-15 0)
(-3.96941e-14 -1.46755e-15 0)
(-3.87326e-14 -1.34859e-15 0)
(-3.76881e-14 -1.20643e-15 0)
(-3.65328e-14 -1.04853e-15 0)
(-3.52472e-14 -8.78952e-16 0)
(-3.3816e-14 -7.08999e-16 0)
(-3.22422e-14 -5.45078e-16 0)
(-3.05327e-14 -3.93516e-16 0)
(-2.87049e-14 -2.64712e-16 0)
(-2.67895e-14 -1.61204e-16 0)
(-2.48154e-14 -8.89267e-17 0)
(-2.28211e-14 -5.1414e-17 0)
(-2.08455e-14 -4.64429e-17 0)
(-1.89236e-14 -7.62312e-17 0)
(-1.70944e-14 -1.36932e-16 0)
(-1.53877e-14 -2.23908e-16 0)
(-1.38268e-14 -3.33937e-16 0)
(-1.24292e-14 -4.57976e-16 0)
(-1.11984e-14 -5.90048e-16 0)
(-1.01321e-14 -7.23585e-16 0)
(-9.21885e-15 -8.50442e-16 0)
(-8.43672e-15 -9.66377e-16 0)
(-7.75949e-15 -1.06561e-15 0)
(-7.15255e-15 -1.14399e-15 0)
(-6.57706e-15 -1.2005e-15 0)
(-5.99381e-15 -1.2342e-15 0)
(-5.36163e-15 -1.24812e-15 0)
(-4.64581e-15 -1.24883e-15 0)
(-4.08507e-13 -4.93363e-14 0)
(-3.68655e-13 -3.63761e-14 0)
(-3.3752e-13 -2.86552e-14 0)
(-3.12221e-13 -2.35753e-14 0)
(-2.91018e-13 -1.999e-14 0)
(-2.72817e-13 -1.73194e-14 0)
(-2.56885e-13 -1.52515e-14 0)
(-2.42728e-13 -1.35989e-14 0)
(-2.29983e-13 -1.22435e-14 0)
(-2.18384e-13 -1.11164e-14 0)
(-2.07739e-13 -1.01617e-14 0)
(-1.97895e-13 -9.3464e-15 0)
(-1.88742e-13 -8.64991e-15 0)
(-1.80202e-13 -8.04833e-15 0)
(-1.72208e-13 -7.53082e-15 0)
(-1.64719e-13 -7.08621e-15 0)
(-1.57702e-13 -6.69975e-15 0)
(-1.51128e-13 -6.36549e-15 0)
(-1.44977e-13 -6.07167e-15 0)
(-1.39227e-13 -5.80648e-15 0)
(-1.33854e-13 -5.56526e-15 0)
(-1.28837e-13 -5.33405e-15 0)
(-1.24139e-13 -5.10606e-15 0)
(-1.1973e-13 -4.87635e-15 0)
(-1.15572e-13 -4.63341e-15 0)
(-1.11617e-13 -4.37958e-15 0)
(-1.07828e-13 -4.11068e-15 0)
(-1.04159e-13 -3.8244e-15 0)
(-1.00567e-13 -3.53028e-15 0)
(-9.7022e-14 -3.2271e-15 0)
(-9.34903e-14 -2.9231e-15 0)
(-8.99532e-14 -2.63091e-15 0)
(-8.64044e-14 -2.35152e-15 0)
(-8.28365e-14 -2.09932e-15 0)
(-7.92651e-14 -1.88215e-15 0)
(-7.5708e-14 -1.70175e-15 0)
(-7.21891e-14 -1.57096e-15 0)
(-6.87477e-14 -1.4867e-15 0)
(-6.54141e-14 -1.45076e-15 0)
(-6.22277e-14 -1.46415e-15 0)
(-5.92245e-14 -1.51538e-15 0)
(-5.64293e-14 -1.60367e-15 0)
(-5.38707e-14 -1.7169e-15 0)
(-5.15601e-14 -1.84312e-15 0)
(-4.95015e-14 -1.97632e-15 0)
(-4.76936e-14 -2.09964e-15 0)
(-4.61159e-14 -2.20532e-15 0)
(-4.47459e-14 -2.28483e-15 0)
(-4.35507e-14 -2.32649e-15 0)
(-4.2487e-14 -2.32869e-15 0)
(-4.15145e-14 -2.2867e-15 0)
(-4.05862e-14 -2.19875e-15 0)
(-3.96558e-14 -2.07053e-15 0)
(-3.86848e-14 -1.90351e-15 0)
(-3.76334e-14 -1.70524e-15 0)
(-3.64733e-14 -1.48654e-15 0)
(-3.51856e-14 -1.25375e-15 0)
(-3.37556e-14 -1.0206e-15 0)
(-3.21852e-14 -7.97274e-16 0)
(-3.04822e-14 -5.9186e-16 0)
(-2.86633e-14 -4.17559e-16 0)
(-2.67581e-14 -2.79153e-16 0)
(-2.4796e-14 -1.83008e-16 0)
(-2.28139e-14 -1.34237e-16 0)
(-2.08505e-14 -1.30377e-16 0)
(-1.89404e-14 -1.72926e-16 0)
(-1.71216e-14 -2.57682e-16 0)
(-1.54236e-14 -3.77633e-16 0)
(-1.38693e-14 -5.27737e-16 0)
(-1.24756e-14 -6.9676e-16 0)
(-1.12464e-14 -8.7572e-16 0)
(-1.01791e-14 -1.05612e-15 0)
(-9.26254e-15 -1.22731e-15 0)
(-8.47532e-15 -1.38284e-15 0)
(-7.79126e-15 -1.51562e-15 0)
(-7.17655e-15 -1.62007e-15 0)
(-6.593e-15 -1.69481e-15 0)
(-6.00209e-15 -1.73934e-15 0)
(-5.36402e-15 -1.75759e-15 0)
(-4.64567e-15 -1.75856e-15 0)
(-4.00532e-13 -6.53574e-14 0)
(-3.64216e-13 -4.90188e-14 0)
(-3.34744e-13 -3.89334e-14 0)
(-3.10333e-13 -3.21723e-14 0)
(-2.89651e-13 -2.73488e-14 0)
(-2.71779e-13 -2.37336e-14 0)
(-2.5607e-13 -2.09226e-14 0)
(-2.42069e-13 -1.86722e-14 0)
(-2.29439e-13 -1.68254e-14 0)
(-2.17928e-13 -1.52865e-14 0)
(-2.07351e-13 -1.3984e-14 0)
(-1.97563e-13 -1.28711e-14 0)
(-1.88457e-13 -1.19183e-14 0)
(-1.79956e-13 -1.1095e-14 0)
(-1.71997e-13 -1.03837e-14 0)
(-1.64536e-13 -9.77009e-15 0)
(-1.57543e-13 -9.23508e-15 0)
(-1.50989e-13 -8.768e-15 0)
(-1.44853e-13 -8.35542e-15 0)
(-1.39115e-13 -7.9819e-15 0)
(-1.33749e-13 -7.63953e-15 0)
(-1.28735e-13 -7.31285e-15 0)
(-1.24038e-13 -6.99159e-15 0)
(-1.19626e-13 -6.66998e-15 0)
(-1.15463e-13 -6.33525e-15 0)
(-1.11502e-13 -5.98756e-15 0)
(-1.07707e-13 -5.62427e-15 0)
(-1.04033e-13 -5.24219e-15 0)
(-1.00437e-13 -4.85125e-15 0)
(-9.68908e-14 -4.4532e-15 0)
(-9.33616e-14 -4.056e-15 0)
(-8.98301e-14 -3.6749e-15 0)
(-8.62901e-14 -3.31366e-15 0)
(-8.27355e-14 -2.98659e-15 0)
(-7.91797e-14 -2.70504e-15 0)
(-7.5641e-14 -2.4716e-15 0)
(-7.21426e-14 -2.29902e-15 0)
(-6.87215e-14 -2.18632e-15 0)
(-6.54085e-14 -2.1334e-15 0)
(-6.22406e-14 -2.14118e-15 0)
(-5.92533e-14 -2.19712e-15 0)
(-5.64711e-14 -2.2972e-15 0)
(-5.39205e-14 -2.42862e-15 0)
(-5.1614e-14 -2.57582e-15 0)
(-4.95547e-14 -2.72999e-15 0)
(-4.77408e-14 -2.87275e-15 0)
(-4.61537e-14 -2.99244e-15 0)
(-4.47701e-14 -3.07931e-15 0)
(-4.35585e-14 -3.12006e-15 0)
(-4.24771e-14 -3.11104e-15 0)
(-4.14856e-14 -3.04815e-15 0)
(-4.0539e-14 -2.92908e-15 0)
(-3.95919e-14 -2.75999e-15 0)
(-3.86062e-14 -2.54448e-15 0)
(-3.7544e-14 -2.29098e-15 0)
(-3.63768e-14 -2.01288e-15 0)
(-3.50862e-14 -1.71931e-15 0)
(-3.36583e-14 -1.42559e-15 0)
(-3.20941e-14 -1.14537e-15 0)
(-3.04016e-14 -8.88823e-16 0)
(-2.8597e-14 -6.7086e-16 0)
(-2.67085e-14 -4.98817e-16 0)
(-2.47654e-14 -3.79319e-16 0)
(-2.28029e-14 -3.18476e-16 0)
(-2.08589e-14 -3.14277e-16 0)
(-1.89676e-14 -3.67018e-16 0)
(-1.71651e-14 -4.7224e-16 0)
(-1.5481e-14 -6.21078e-16 0)
(-1.3937e-14 -8.06335e-16 0)
(-1.25493e-14 -1.01527e-15 0)
(-1.13225e-14 -1.23614e-15 0)
(-1.02535e-14 -1.45852e-15 0)
(-9.33163e-15 -1.66988e-15 0)
(-8.53623e-15 -1.86151e-15 0)
(-7.84137e-15 -2.02529e-15 0)
(-7.21439e-15 -2.15456e-15 0)
(-6.61824e-15 -2.24751e-15 0)
(-6.0155e-15 -2.30422e-15 0)
(-5.36831e-15 -2.32943e-15 0)
(-4.64563e-15 -2.33376e-15 0)
(-3.89178e-13 -8.25058e-14 0)
(-3.57445e-13 -6.33258e-14 0)
(-3.3036e-13 -5.09062e-14 0)
(-3.07293e-13 -4.23509e-14 0)
(-2.87427e-13 -3.61466e-14 0)
(-2.70081e-13 -3.14518e-14 0)
(-2.5473e-13 -2.77783e-14 0)
(-2.40983e-13 -2.48261e-14 0)
(-2.28541e-13 -2.23983e-14 0)
(-2.17174e-13 -2.03707e-14 0)
(-2.0671e-13 -1.86539e-14 0)
(-1.97015e-13 -1.71853e-14 0)
(-1.87985e-13 -1.59237e-14 0)
(-1.79548e-13 -1.48323e-14 0)
(-1.71643e-13 -1.38854e-14 0)
(-1.64229e-13 -1.30633e-14 0)
(-1.57275e-13 -1.23433e-14 0)
(-1.50753e-13 -1.17094e-14 0)
(-1.44642e-13 -1.11457e-14 0)
(-1.38922e-13 -1.06336e-14 0)
(-1.33568e-13 -1.01614e-14 0)
(-1.2856e-13 -9.71263e-15 0)
(-1.23865e-13 -9.27396e-15 0)
(-1.1945e-13 -8.83795e-15 0)
(-1.15281e-13 -8.39189e-15 0)
(-1.11314e-13 -7.93333e-15 0)
(-1.07511e-13 -7.46075e-15 0)
(-1.0383e-13 -6.97115e-15 0)
(-1.00231e-13 -6.47352e-15 0)
(-9.66841e-14 -5.97279e-15 0)
(-9.31597e-14 -5.4768e-15 0)
(-8.96379e-14 -5.00166e-15 0)
(-8.61121e-14 -4.55457e-15 0)
(-8.2578e-14 -4.14906e-15 0)
(-7.90464e-14 -3.79864e-15 0)
(-7.55355e-14 -3.50759e-15 0)
(-7.20677e-14 -3.28716e-15 0)
(-6.8677e-14 -3.13849e-15 0)
(-6.53945e-14 -3.05997e-15 0)
(-6.22542e-14 -3.05136e-15 0)
(-5.92901e-14 -3.1003e-15 0)
(-5.65268e-14 -3.19914e-15 0)
(-5.39882e-14 -3.3346e-15 0)
(-5.16872e-14 -3.48868e-15 0)
(-4.96267e-14 -3.64929e-15 0)
(-4.78042e-14 -3.79759e-15 0)
(-4.62028e-14 -3.91862e-15 0)
(-4.47994e-14 -4.00113e-15 0)
(-4.35636e-14 -4.03133e-15 0)
(-4.2456e-14 -4.00348e-15 0)
(-4.1437e-14 -3.914e-15 0)
(-4.04637e-14 -3.76072e-15 0)
(-3.94924e-14 -3.54957e-15 0)
(-3.84858e-14 -3.28635e-15 0)
(-3.74079e-14 -2.98036e-15 0)
(-3.62308e-14 -2.64661e-15 0)
(-3.49366e-14 -2.29711e-15 0)
(-3.35123e-14 -1.94819e-15 0)
(-3.19577e-14 -1.61617e-15 0)
(-3.02811e-14 -1.31344e-15 0)
(-2.8498e-14 -1.05564e-15 0)
(-2.66346e-14 -8.52468e-16 0)
(-2.47196e-14 -7.10852e-16 0)
(-2.27863e-14 -6.37214e-16 0)
(-2.0871e-14 -6.30462e-16 0)
(-1.90073e-14 -6.89546e-16 0)
(-1.72291e-14 -8.09648e-16 0)
(-1.55651e-14 -9.80737e-16 0)
(-1.40362e-14 -1.19342e-15 0)
(-1.26576e-14 -1.43403e-15 0)
(-1.14341e-14 -1.68867e-15 0)
(-1.03628e-14 -1.94507e-15 0)
(-9.43318e-15 -2.18951e-15 0)
(-8.62582e-15 -2.41132e-15 0)
(-7.91538e-15 -2.60153e-15 0)
(-7.2707e-15 -2.75295e-15 0)
(-6.65646e-15 -2.86329e-15 0)
(-6.03693e-15 -2.93331e-15 0)
(-5.37671e-15 -2.96837e-15 0)
(-4.64711e-15 -2.97979e-15 0)
(-3.74203e-13 -9.99505e-14 0)
(-3.47767e-13 -7.89073e-14 0)
(-3.238e-13 -6.44649e-14 0)
(-3.02621e-13 -5.41514e-14 0)
(-2.83952e-13 -4.64995e-14 0)
(-2.67401e-13 -4.06253e-14 0)
(-2.52603e-13 -3.59844e-14 0)
(-2.39253e-13 -3.22302e-14 0)
(-2.27107e-13 -2.9131e-14 0)
(-2.15967e-13 -2.6534e-14 0)
(-2.05683e-13 -2.43304e-14 0)
(-1.96134e-13 -2.24412e-14 0)
(-1.87225e-13 -2.08125e-14 0)
(-1.78888e-13 -1.93997e-14 0)
(-1.7107e-13 -1.81681e-14 0)
(-1.63728e-13 -1.70913e-14 0)
(-1.56834e-13 -1.61429e-14 0)
(-1.50361e-13 -1.53016e-14 0)
(-1.44289e-13 -1.45478e-14 0)
(-1.38598e-13 -1.38605e-14 0)
(-1.33266e-13 -1.32239e-14 0)
(-1.28269e-13 -1.26208e-14 0)
(-1.23579e-13 -1.20355e-14 0)
(-1.19163e-13 -1.14584e-14 0)
(-1.14989e-13 -1.08777e-14 0)
(-1.11015e-13 -1.02885e-14 0)
(-1.07203e-13 -9.68975e-15 0)
(-1.03517e-13 -9.07936e-15 0)
(-9.99154e-14 -8.46482e-15 0)
(-9.63703e-14 -7.85339e-15 0)
(-9.28546e-14 -7.25319e-15 0)
(-8.93488e-14 -6.67966e-15 0)
(-8.58452e-14 -6.14305e-15 0)
(-8.2341e-14 -5.65599e-15 0)
(-7.88448e-14 -5.23239e-15 0)
(-7.53738e-14 -4.87841e-15 0)
(-7.19495e-14 -4.60317e-15 0)
(-6.86022e-14 -4.40908e-15 0)
(-6.53621e-14 -4.29364e-15 0)
(-6.22605e-14 -4.25473e-15 0)
(-5.9329e-14 -4.28076e-15 0)
(-5.65917e-14 -4.36098e-15 0)
(-5.407e-14 -4.48142e-15 0)
(-5.17765e-14 -4.62305e-15 0)
(-4.97141e-14 -4.77072e-15 0)
(-4.78797e-14 -4.9057e-15 0)
(-4.62584e-14 -5.01094e-15 0)
(-4.48276e-14 -5.07369e-15 0)
(-4.35587e-14 -5.08054e-15 0)
(-4.2415e-14 -5.02415e-15 0)
(-4.13584e-14 -4.90122e-15 0)
(-4.03486e-14 -4.71021e-15 0)
(-3.93445e-14 -4.45655e-15 0)
(-3.83096e-14 -4.14777e-15 0)
(-3.72107e-14 -3.79413e-15 0)
(-3.6021e-14 -3.41125e-15 0)
(-3.47226e-14 -3.01355e-15 0)
(-3.33039e-14 -2.61794e-15 0)
(-3.17637e-14 -2.24226e-15 0)
(-3.01099e-14 -1.90089e-15 0)
(-2.83571e-14 -1.60943e-15 0)
(-2.6529e-14 -1.37919e-15 0)
(-2.46533e-14 -1.21752e-15 0)
(-2.27609e-14 -1.13054e-15 0)
(-2.08859e-14 -1.11815e-15 0)
(-1.90606e-14 -1.17818e-15 0)
(-1.73164e-14 -1.30528e-15 0)
(-1.56803e-14 -1.48894e-15 0)
(-1.41725e-14 -1.718e-15 0)
(-1.28067e-14 -1.9783e-15 0)
(-1.15881e-14 -2.25468e-15 0)
(-1.05138e-14 -2.53343e-15 0)
(-9.57396e-15 -2.80026e-15 0)
(-8.75041e-15 -3.04319e-15 0)
(-8.01903e-15 -3.25274e-15 0)
(-7.35061e-15 -3.42166e-15 0)
(-6.71223e-15 -3.54737e-15 0)
(-6.07045e-15 -3.63119e-15 0)
(-5.39287e-15 -3.67889e-15 0)
(-4.65328e-15 -3.70173e-15 0)
(-3.55715e-13 -1.1678e-13 0)
(-3.34775e-13 -9.51191e-14 0)
(-3.145e-13 -7.92689e-14 0)
(-2.95763e-13 -6.74463e-14 0)
(-2.78736e-13 -5.84107e-14 0)
(-2.63319e-13 -5.13331e-14 0)
(-2.49329e-13 -4.56629e-14 0)
(-2.36573e-13 -4.1031e-14 0)
(-2.24875e-13 -3.71821e-14 0)
(-2.14083e-13 -3.39396e-14 0)
(-2.04075e-13 -3.1177e-14 0)
(-1.94749e-13 -2.88006e-14 0)
(-1.86026e-13 -2.67428e-14 0)
(-1.77844e-13 -2.49499e-14 0)
(-1.70156e-13 -2.33787e-14 0)
(-1.62924e-13 -2.19953e-14 0)
(-1.56121e-13 -2.07688e-14 0)
(-1.49724e-13 -1.96725e-14 0)
(-1.43712e-13 -1.86831e-14 0)
(-1.38067e-13 -1.77773e-14 0)
(-1.32768e-13 -1.69358e-14 0)
(-1.27793e-13 -1.61403e-14 0)
(-1.23115e-13 -1.53737e-14 0)
(-1.18704e-13 -1.46247e-14 0)
(-1.14528e-13 -1.3882e-14 0)
(-1.10549e-13 -1.31395e-14 0)
(-1.06733e-13 -1.23957e-14 0)
(-1.03043e-13 -1.16497e-14 0)
(-9.94436e-14 -1.09076e-14 0)
(-9.59062e-14 -1.01773e-14 0)
(-9.24063e-14 -9.46757e-15 0)
(-8.89255e-14 -8.79208e-15 0)
(-8.54553e-14 -8.16267e-15 0)
(-8.19936e-14 -7.59108e-15 0)
(-7.85472e-14 -7.09006e-15 0)
(-7.51312e-14 -6.66687e-15 0)
(-7.17656e-14 -6.32846e-15 0)
(-6.84771e-14 -6.07727e-15 0)
(-6.52936e-14 -5.91033e-15 0)
(-6.22437e-14 -5.82349e-15 0)
(-5.93557e-14 -5.8059e-15 0)
(-5.66526e-14 -5.84488e-15 0)
(-5.41533e-14 -5.9257e-15 0)
(-5.18697e-14 -6.02951e-15 0)
(-4.98049e-14 -6.13917e-15 0)
(-4.79553e-14 -6.23638e-15 0)
(-4.63079e-14 -6.30354e-15 0)
(-4.48417e-14 -6.32693e-15 0)
(-4.353e-14 -6.29403e-15 0)
(-4.23396e-14 -6.19688e-15 0)
(-4.12348e-14 -6.03225e-15 0)
(-4.01781e-14 -5.7995e-15 0)
(-3.91319e-14 -5.50361e-15 0)
(-3.80615e-14 -5.15306e-15 0)
(-3.69365e-14 -4.75887e-15 0)
(-3.57315e-14 -4.33642e-15 0)
(-3.44292e-14 -3.90151e-15 0)
(-3.30191e-14 -3.47117e-15 0)
(-3.14993e-14 -3.06347e-15 0)
(-2.98765e-14 -2.6939e-15 0)
(-2.81644e-14 -2.37748e-15 0)
(-2.63839e-14 -2.12605e-15 0)
(-2.45604e-14 -1.94723e-15 0)
(-2.27224e-14 -1.84651e-15 0)
(-2.0901e-14 -1.8244e-15 0)
(-1.91263e-14 -1.87806e-15 0)
(-1.74271e-14 -2.0016e-15 0)
(-1.58281e-14 -2.18464e-15 0)
(-1.43482e-14 -2.41507e-15 0)
(-1.29998e-14 -2.67875e-15 0)
(-1.17882e-14 -2.9603e-15 0)
(-1.07108e-14 -3.24531e-15 0)
(-9.75844e-15 -3.51959e-15 0)
(-8.91462e-15 -3.77082e-15 0)
(-8.15706e-15 -3.98945e-15 0)
(-7.45903e-15 -4.16865e-15 0)
(-6.79065e-15 -4.30589e-15 0)
(-6.12149e-15 -4.40284e-15 0)
(-5.42249e-15 -4.46543e-15 0)
(-4.67006e-15 -4.50428e-15 0)
(-3.3413e-13 -1.32203e-13 0)
(-3.18353e-13 -1.11161e-13 0)
(-3.02035e-13 -9.474e-14 0)
(-2.86181e-13 -8.18855e-14 0)
(-2.71233e-13 -7.17057e-14 0)
(-2.57328e-13 -6.35231e-14 0)
(-2.44456e-13 -5.68434e-14 0)
(-2.32543e-13 -5.13107e-14 0)
(-2.21494e-13 -4.66665e-14 0)
(-2.11213e-13 -4.27229e-14 0)
(-2.01614e-13 -3.93415e-14 0)
(-1.92622e-13 -3.64173e-14 0)
(-1.84174e-13 -3.38705e-14 0)
(-1.76223e-13 -3.16386e-14 0)
(-1.68727e-13 -2.96706e-14 0)
(-1.61658e-13 -2.79252e-14 0)
(-1.54991e-13 -2.63664e-14 0)
(-1.48706e-13 -2.49629e-14 0)
(-1.42785e-13 -2.36875e-14 0)
(-1.37211e-13 -2.25148e-14 0)
(-1.31966e-13 -2.14228e-14 0)
(-1.27029e-13 -2.03921e-14 0)
(-1.22376e-13 -1.94053e-14 0)
(-1.17981e-13 -1.84495e-14 0)
(-1.13812e-13 -1.75141e-14 0)
(-1.09838e-13 -1.65923e-14 0)
(-1.06025e-13 -1.5682e-14 0)
(-1.0234e-13 -1.47834e-14 0)
(-9.8752e-14 -1.39008e-14 0)
(-9.52332e-14 -1.30421e-14 0)
(-9.17612e-14 -1.22157e-14 0)
(-8.83189e-14 -1.14333e-14 0)
(-8.48974e-14 -1.07063e-14 0)
(-8.14944e-14 -1.00452e-14 0)
(-7.81149e-14 -9.46074e-15 0)
(-7.47718e-14 -8.95971e-15 0)
(-7.14825e-14 -8.54706e-15 0)
(-6.82698e-14 -8.22417e-15 0)
(-6.51586e-14 -7.98764e-15 0)
(-6.21741e-14 -7.83167e-15 0)
(-5.93414e-14 -7.74579e-15 0)
(-5.66812e-14 -7.71668e-15 0)
(-5.42103e-14 -7.72922e-15 0)
(-5.19394e-14 -7.76557e-15 0)
(-4.98719e-14 -7.80816e-15 0)
(-4.80043e-14 -7.83951e-15 0)
(-4.63252e-14 -7.84283e-15 0)
(-4.48162e-14 -7.80446e-15 0)
(-4.3453e-14 -7.7131e-15 0)
(-4.22063e-14 -7.56114e-15 0)
(-4.10436e-14 -7.3455e-15 0)
(-3.99312e-14 -7.06639e-15 0)
(-3.88349e-14 -6.72853e-15 0)
(-3.77233e-14 -6.34054e-15 0)
(-3.65684e-14 -5.91365e-15 0)
(-3.5347e-14 -5.4624e-15 0)
(-3.40426e-14 -5.00257e-15 0)
(-3.26455e-14 -4.55067e-15 0)
(-3.11531e-14 -4.12383e-15 0)
(-2.9571e-14 -3.7374e-15 0)
(-2.79109e-14 -3.40531e-15 0)
(-2.61908e-14 -3.13882e-15 0)
(-2.44332e-14 -2.94543e-15 0)
(-2.26637e-14 -2.82982e-15 0)
(-2.09097e-14 -2.7926e-15 0)
(-1.91986e-14 -2.83072e-15 0)
(-1.75557e-14 -2.93802e-15 0)
(-1.60035e-14 -3.10467e-15 0)
(-1.45588e-14 -3.31871e-15 0)
(-1.32332e-14 -3.56657e-15 0)
(-1.20314e-14 -3.83366e-15 0)
(-1.09516e-14 -4.10591e-15 0)
(-9.98545e-15 -4.36992e-15 0)
(-9.1185e-15 -4.61403e-15 0)
(-8.33093e-15 -4.82923e-15 0)
(-7.59901e-15 -5.0095e-15 0)
(-6.89649e-15 -5.15263e-15 0)
(-6.19652e-15 -5.26051e-15 0)
(-5.47369e-15 -5.3389e-15 0)
(-4.70711e-15 -5.39744e-15 0)
(-3.86793e-15 -1.16736e-16 0)
(-3.19294e-15 -1.1817e-16 0)
(-2.71227e-15 -1.2221e-16 0)
(-2.35333e-15 -1.25827e-16 0)
(-2.04597e-15 -1.26857e-16 0)
(-1.73668e-15 -1.23452e-16 0)
(-1.39084e-15 -1.14846e-16 0)
(-9.99017e-16 -1.00741e-16 0)
(-5.79228e-16 -7.87995e-17 0)
(-1.83224e-16 -3.52855e-17 0)
(-3.86853e-15 -4.13376e-16 0)
(-3.19416e-15 -4.1945e-16 0)
(-2.71425e-15 -4.26384e-16 0)
(-2.35473e-15 -4.22709e-16 0)
(-2.04486e-15 -4.02463e-16 0)
(-1.73058e-15 -3.63916e-16 0)
(-1.37692e-15 -3.11835e-16 0)
(-9.7189e-16 -2.54651e-16 0)
(-5.17893e-16 -2.00196e-16 0)
(-1.3971e-16 -1.48294e-16 0)
(-3.86987e-15 -8.01847e-16 0)
(-3.19607e-15 -8.11409e-16 0)
(-2.7125e-15 -8.11299e-16 0)
(-2.3429e-15 -7.82646e-16 0)
(-2.01677e-15 -7.20434e-16 0)
(-1.68307e-15 -6.30369e-16 0)
(-1.31325e-15 -5.29267e-16 0)
(-9.04387e-16 -4.38254e-16 0)
(-4.75051e-16 -3.77188e-16 0)
(-1.29382e-16 -3.63484e-16 0)
(-3.87138e-15 -1.24867e-15 0)
(-3.19642e-15 -1.25606e-15 0)
(-2.70214e-15 -1.24189e-15 0)
(-2.31166e-15 -1.187e-15 0)
(-1.9586e-15 -1.09328e-15 0)
(-1.60003e-15 -9.76379e-16 0)
(-1.21851e-15 -8.60779e-16 0)
(-8.21299e-16 -7.6977e-16 0)
(-4.31841e-16 -7.18201e-16 0)
(-1.21325e-16 -7.08733e-16 0)
(-3.87209e-15 -1.75704e-15 0)
(-3.19243e-15 -1.75847e-15 0)
(-2.67932e-15 -1.72936e-15 0)
(-2.25888e-15 -1.65603e-15 0)
(-1.87343e-15 -1.54846e-15 0)
(-1.49172e-15 -1.42874e-15 0)
(-1.10751e-15 -1.32178e-15 0)
(-7.33378e-16 -1.2454e-15 0)
(-3.89203e-16 -1.20582e-15 0)
(-1.13576e-16 -1.19866e-15 0)
(-3.87125e-15 -2.33255e-15 0)
(-3.18237e-15 -2.32825e-15 0)
(-2.64345e-15 -2.28989e-15 0)
(-2.18812e-15 -2.21171e-15 0)
(-1.7712e-15 -2.10953e-15 0)
(-1.37366e-15 -2.00645e-15 0)
(-9.96707e-16 -1.92219e-15 0)
(-6.5199e-16 -1.86661e-15 0)
(-3.51391e-16 -1.8395e-15 0)
(-1.06672e-16 -1.83441e-15 0)
(-3.8694e-15 -2.98233e-15 0)
(-3.16715e-15 -2.97692e-15 0)
(-2.59881e-15 -2.93943e-15 0)
(-2.10956e-15 -2.87141e-15 0)
(-1.66798e-15 -2.79047e-15 0)
(-1.26437e-15 -2.71562e-15 0)
(-9.01676e-16 -2.65906e-15 0)
(-5.86177e-16 -2.62408e-15 0)
(-3.21251e-16 -2.60764e-15 0)
(-1.00775e-16 -2.60414e-15 0)
(-3.8696e-15 -3.71334e-15 0)
(-3.15186e-15 -3.71469e-15 0)
(-2.55529e-15 -3.68942e-15 0)
(-2.03862e-15 -3.64362e-15 0)
(-1.58196e-15 -3.59239e-15 0)
(-1.17991e-15 -3.54821e-15 0)
(-8.32743e-16 -3.51689e-15 0)
(-5.40332e-16 -3.49842e-15 0)
(-2.99664e-16 -3.48979e-15 0)